ITEM: TIMESTEP
0
ITEM: NUMBER OF ATOMS
475
ITEM: BOX BOUNDS pp pp pp
0.0000000000000000e+00 3.3789999999999999e+01
0.0000000000000000e+00 3.3789999999999999e+01
0.0000000000000000e+00 3.3789999999999999e+01
ITEM: ATOMS id mol type x y z 
27149 308 4 4 3.26795 12.1 
27150 308 4 5 3 12.1 
27148 308 4 3.26795 4 12.1 
27139 308 4 4.5 4.13398 12.1 
27140 308 4 5.5 4.13398 12.1 
27147 308 4 3 5 12.1 
27138 308 4 4 5 12.1 
27134 308 4 5 5 12.1 
27339 318 4 4 3.26795 19.8 
27340 318 4 5 3 19.8 
27338 318 4 3.26795 4 19.8 
27329 318 4 4.5 4.13398 19.8 
27330 318 4 5.5 4.13398 19.8 
27337 318 4 3 5 19.8 
27328 318 4 4 5 19.8 
27324 318 4 5 5 19.8 
27146 308 4 3.26795 6 12.1 
27137 308 4 4.5 5.86602 12.1 
27136 308 4 5.5 5.86602 12.1 
27145 308 4 4 6.73205 12.1 
27144 308 4 5 7 12.1 
27336 318 4 3.26795 6 19.8 
27327 318 4 4.5 5.86602 19.8 
27326 318 4 5.5 5.86602 19.8 
27335 318 4 4 6.73205 19.8 
27334 318 4 5 7 19.8 
27112 306 4 5 13 8.8 
27110 306 4 3.26795 14 8.8 
27111 306 4 4 13.2679 8.8 
27109 306 4 3 15 8.8 
27100 306 4 4 15 8.8 
27101 306 4 4.5 14.134 8.8 
27096 306 4 5 15 8.8 
27102 306 4 5.5 14.134 8.8 
27099 306 4 4.5 15.866 8.8 
27098 306 4 5.5 15.866 8.8 
27108 306 4 3.26795 16 8.8 
27107 306 4 4 16.7321 8.8 
27106 306 4 5 17 8.8 
27016 301 4 4 23.2679 3.3 
27017 301 4 5 23 3.3 
27015 301 4 3.26795 24 3.3 
27006 301 4 4.5 24.134 3.3 
27007 301 4 5.5 24.134 3.3 
27014 301 4 3 25 3.3 
27005 301 4 4 25 3.3 
27001 301 4 5 25 3.3 
27013 301 4 3.26795 26 3.3 
27004 301 4 4.5 25.866 3.3 
27003 301 4 5.5 25.866 3.3 
27012 301 4 4 26.7321 3.3 
27011 301 4 5 27 3.3 
27073 304 4 4 23.2679 6.6 
27074 304 4 5 23 6.6 
27072 304 4 3.26795 24 6.6 
27063 304 4 4.5 24.134 6.6 
27064 304 4 5.5 24.134 6.6 
27071 304 4 3 25 6.6 
27062 304 4 4 25 6.6 
27058 304 4 5 25 6.6 
27070 304 4 3.26795 26 6.6 
27061 304 4 4.5 25.866 6.6 
27060 304 4 5.5 25.866 6.6 
27069 304 4 4 26.7321 6.6 
27068 304 4 5 27 6.6 
27206 311 4 4 23.2679 12.1 
27207 311 4 5 23 12.1 
27205 311 4 3.26795 24 12.1 
27196 311 4 4.5 24.134 12.1 
27197 311 4 5.5 24.134 12.1 
27204 311 4 3 25 12.1 
27195 311 4 4 25 12.1 
27191 311 4 5 25 12.1 
27203 311 4 3.26795 26 12.1 
27194 311 4 4.5 25.866 12.1 
27193 311 4 5.5 25.866 12.1 
27202 311 4 4 26.7321 12.1 
27201 311 4 5 27 12.1 
27225 312 4 4 23.2679 14.3 
27226 312 4 5 23 14.3 
27224 312 4 3.26795 24 14.3 
27215 312 4 4.5 24.134 14.3 
27216 312 4 5.5 24.134 14.3 
27223 312 4 3 25 14.3 
27214 312 4 4 25 14.3 
27210 312 4 5 25 14.3 
27222 312 4 3.26795 26 14.3 
27213 312 4 4.5 25.866 14.3 
27212 312 4 5.5 25.866 14.3 
27221 312 4 4 26.7321 14.3 
27220 312 4 5 27 14.3 
27151 308 4 6 3.26795 12.1 
27152 308 4 6.73205 4 12.1 
27135 308 4 6 5 12.1 
27141 308 4 7 5 12.1 
27341 318 4 6 3.26795 19.8 
27342 318 4 6.73205 4 19.8 
27325 318 4 6 5 19.8 
27331 318 4 7 5 19.8 
27142 308 4 6.73205 6 12.1 
27143 308 4 6 6.73205 12.1 
27332 318 4 6.73205 6 19.8 
27333 318 4 6 6.73205 19.8 
27113 306 4 6 13.2679 8.8 
27114 306 4 6.73205 14 8.8 
27097 306 4 6 15 8.8 
27103 306 4 7 15 8.8 
27105 306 4 6 16.7321 8.8 
27104 306 4 6.73205 16 8.8 
27018 301 4 6 23.2679 3.3 
27019 301 4 6.73205 24 3.3 
27002 301 4 6 25 3.3 
27008 301 4 7 25 3.3 
27009 301 4 6.73205 26 3.3 
27010 301 4 6 26.7321 3.3 
27075 304 4 6 23.2679 6.6 
27076 304 4 6.73205 24 6.6 
27059 304 4 6 25 6.6 
27065 304 4 7 25 6.6 
27066 304 4 6.73205 26 6.6 
27067 304 4 6 26.7321 6.6 
27208 311 4 6 23.2679 12.1 
27209 311 4 6.73205 24 12.1 
27192 311 4 6 25 12.1 
27198 311 4 7 25 12.1 
27199 311 4 6.73205 26 12.1 
27200 311 4 6 26.7321 12.1 
27227 312 4 6 23.2679 14.3 
27228 312 4 6.73205 24 14.3 
27211 312 4 6 25 14.3 
27217 312 4 7 25 14.3 
27218 312 4 6.73205 26 14.3 
27219 312 4 6 26.7321 14.3 
27168 309 4 14 3.26795 12.1 
27169 309 4 15 3 12.1 
27170 309 4 16 3.26795 12.1 
27167 309 4 13.2679 4 12.1 
27158 309 4 14.5 4.13398 12.1 
27159 309 4 15.5 4.13398 12.1 
27171 309 4 16.7321 4 12.1 
27166 309 4 13 5 12.1 
27157 309 4 14 5 12.1 
27153 309 4 15 5 12.1 
27154 309 4 16 5 12.1 
27320 317 4 14 3.26795 18.7 
27321 317 4 15 3 18.7 
27322 317 4 16 3.26795 18.7 
27319 317 4 13.2679 4 18.7 
27310 317 4 14.5 4.13398 18.7 
27311 317 4 15.5 4.13398 18.7 
27323 317 4 16.7321 4 18.7 
27318 317 4 13 5 18.7 
27309 317 4 14 5 18.7 
27305 317 4 15 5 18.7 
27306 317 4 16 5 18.7 
27415 322 4 14 3.26795 25.3 
27416 322 4 15 3 25.3 
27417 322 4 16 3.26795 25.3 
27414 322 4 13.2679 4 25.3 
27405 322 4 14.5 4.13398 25.3 
27406 322 4 15.5 4.13398 25.3 
27418 322 4 16.7321 4 25.3 
27413 322 4 13 5 25.3 
27404 322 4 14 5 25.3 
27400 322 4 15 5 25.3 
27401 322 4 16 5 25.3 
27165 309 4 13.2679 6 12.1 
27156 309 4 14.5 5.86602 12.1 
27155 309 4 15.5 5.86602 12.1 
27161 309 4 16.7321 6 12.1 
27164 309 4 14 6.73205 12.1 
27163 309 4 15 7 12.1 
27162 309 4 16 6.73205 12.1 
27317 317 4 13.2679 6 18.7 
27308 317 4 14.5 5.86602 18.7 
27307 317 4 15.5 5.86602 18.7 
27313 317 4 16.7321 6 18.7 
27316 317 4 14 6.73205 18.7 
27315 317 4 15 7 18.7 
27314 317 4 16 6.73205 18.7 
27412 322 4 13.2679 6 25.3 
27403 322 4 14.5 5.86602 25.3 
27402 322 4 15.5 5.86602 25.3 
27408 322 4 16.7321 6 25.3 
27411 322 4 14 6.73205 25.3 
27410 322 4 15 7 25.3 
27409 322 4 16 6.73205 25.3 
27036 302 4 15 13 4.4 
27034 302 4 13.2679 14 4.4 
27035 302 4 14 13.2679 4.4 
27037 302 4 16 13.2679 4.4 
27038 302 4 16.7321 14 4.4 
27033 302 4 13 15 4.4 
27024 302 4 14 15 4.4 
27020 302 4 15 15 4.4 
27025 302 4 14.5 14.134 4.4 
27026 302 4 15.5 14.134 4.4 
27021 302 4 16 15 4.4 
27023 302 4 14.5 15.866 4.4 
27022 302 4 15.5 15.866 4.4 
27031 302 4 14 16.7321 4.4 
27032 302 4 13.2679 16 4.4 
27028 302 4 16.7321 16 4.4 
27029 302 4 16 16.7321 4.4 
27093 305 4 15 13 7.7 
27091 305 4 13.2679 14 7.7 
27092 305 4 14 13.2679 7.7 
27094 305 4 16 13.2679 7.7 
27095 305 4 16.7321 14 7.7 
27090 305 4 13 15 7.7 
27081 305 4 14 15 7.7 
27077 305 4 15 15 7.7 
27082 305 4 14.5 14.134 7.7 
27083 305 4 15.5 14.134 7.7 
27078 305 4 16 15 7.7 
27080 305 4 14.5 15.866 7.7 
27079 305 4 15.5 15.866 7.7 
27088 305 4 14 16.7321 7.7 
27089 305 4 13.2679 16 7.7 
27085 305 4 16.7321 16 7.7 
27086 305 4 16 16.7321 7.7 
27131 307 4 15 13 9.9 
27129 307 4 13.2679 14 9.9 
27130 307 4 14 13.2679 9.9 
27132 307 4 16 13.2679 9.9 
27133 307 4 16.7321 14 9.9 
27128 307 4 13 15 9.9 
27119 307 4 14 15 9.9 
27115 307 4 15 15 9.9 
27120 307 4 14.5 14.134 9.9 
27121 307 4 15.5 14.134 9.9 
27116 307 4 16 15 9.9 
27118 307 4 14.5 15.866 9.9 
27117 307 4 15.5 15.866 9.9 
27126 307 4 14 16.7321 9.9 
27127 307 4 13.2679 16 9.9 
27123 307 4 16.7321 16 9.9 
27124 307 4 16 16.7321 9.9 
27283 315 4 15 13 17.6 
27281 315 4 13.2679 14 17.6 
27282 315 4 14 13.2679 17.6 
27284 315 4 16 13.2679 17.6 
27285 315 4 16.7321 14 17.6 
27280 315 4 13 15 17.6 
27271 315 4 14 15 17.6 
27267 315 4 15 15 17.6 
27272 315 4 14.5 14.134 17.6 
27273 315 4 15.5 14.134 17.6 
27268 315 4 16 15 17.6 
27270 315 4 14.5 15.866 17.6 
27269 315 4 15.5 15.866 17.6 
27278 315 4 14 16.7321 17.6 
27279 315 4 13.2679 16 17.6 
27275 315 4 16.7321 16 17.6 
27276 315 4 16 16.7321 17.6 
27359 319 4 15 13 20.9 
27357 319 4 13.2679 14 20.9 
27358 319 4 14 13.2679 20.9 
27360 319 4 16 13.2679 20.9 
27361 319 4 16.7321 14 20.9 
27356 319 4 13 15 20.9 
27347 319 4 14 15 20.9 
27343 319 4 15 15 20.9 
27348 319 4 14.5 14.134 20.9 
27349 319 4 15.5 14.134 20.9 
27344 319 4 16 15 20.9 
27346 319 4 14.5 15.866 20.9 
27345 319 4 15.5 15.866 20.9 
27354 319 4 14 16.7321 20.9 
27355 319 4 13.2679 16 20.9 
27351 319 4 16.7321 16 20.9 
27352 319 4 16 16.7321 20.9 
27030 302 4 15 17 4.4 
27087 305 4 15 17 7.7 
27125 307 4 15 17 9.9 
27277 315 4 15 17 17.6 
27353 319 4 15 17 20.9 
27244 313 4 14 23.2679 14.3 
27245 313 4 15 23 14.3 
27246 313 4 16 23.2679 14.3 
27243 313 4 13.2679 24 14.3 
27234 313 4 14.5 24.134 14.3 
27235 313 4 15.5 24.134 14.3 
27247 313 4 16.7321 24 14.3 
27242 313 4 13 25 14.3 
27233 313 4 14 25 14.3 
27229 313 4 15 25 14.3 
27230 313 4 16 25 14.3 
27241 313 4 13.2679 26 14.3 
27232 313 4 14.5 25.866 14.3 
27231 313 4 15.5 25.866 14.3 
27237 313 4 16.7321 26 14.3 
27240 313 4 14 26.7321 14.3 
27239 313 4 15 27 14.3 
27238 313 4 16 26.7321 14.3 
27301 316 4 14 23.2679 17.6 
27302 316 4 15 23 17.6 
27303 316 4 16 23.2679 17.6 
27300 316 4 13.2679 24 17.6 
27291 316 4 14.5 24.134 17.6 
27292 316 4 15.5 24.134 17.6 
27304 316 4 16.7321 24 17.6 
27299 316 4 13 25 17.6 
27290 316 4 14 25 17.6 
27286 316 4 15 25 17.6 
27287 316 4 16 25 17.6 
27298 316 4 13.2679 26 17.6 
27289 316 4 14.5 25.866 17.6 
27288 316 4 15.5 25.866 17.6 
27294 316 4 16.7321 26 17.6 
27297 316 4 14 26.7321 17.6 
27296 316 4 15 27 17.6 
27295 316 4 16 26.7321 17.6 
27472 325 4 14 23.2679 30.8 
27473 325 4 15 23 30.8 
27474 325 4 16 23.2679 30.8 
27471 325 4 13.2679 24 30.8 
27462 325 4 14.5 24.134 30.8 
27463 325 4 15.5 24.134 30.8 
27475 325 4 16.7321 24 30.8 
27470 325 4 13 25 30.8 
27461 325 4 14 25 30.8 
27457 325 4 15 25 30.8 
27458 325 4 16 25 30.8 
27469 325 4 13.2679 26 30.8 
27460 325 4 14.5 25.866 30.8 
27459 325 4 15.5 25.866 30.8 
27465 325 4 16.7321 26 30.8 
27468 325 4 14 26.7321 30.8 
27467 325 4 15 27 30.8 
27466 325 4 16 26.7321 30.8 
27160 309 4 17 5 12.1 
27312 317 4 17 5 18.7 
27407 322 4 17 5 25.3 
27027 302 4 17 15 4.4 
27084 305 4 17 15 7.7 
27122 307 4 17 15 9.9 
27274 315 4 17 15 17.6 
27350 319 4 17 15 20.9 
27236 313 4 17 25 14.3 
27293 316 4 17 25 17.6 
27464 325 4 17 25 30.8 
27054 303 4 24 3.26795 6.6 
27055 303 4 25 3 6.6 
27056 303 4 26 3.26795 6.6 
27053 303 4 23.2679 4 6.6 
27044 303 4 24.5 4.13398 6.6 
27045 303 4 25.5 4.13398 6.6 
27057 303 4 26.7321 4 6.6 
27052 303 4 23 5 6.6 
27043 303 4 24 5 6.6 
27039 303 4 25 5 6.6 
27040 303 4 26 5 6.6 
27046 303 4 27 5 6.6 
27187 310 4 24 3.26795 12.1 
27188 310 4 25 3 12.1 
27189 310 4 26 3.26795 12.1 
27186 310 4 23.2679 4 12.1 
27177 310 4 24.5 4.13398 12.1 
27178 310 4 25.5 4.13398 12.1 
27190 310 4 26.7321 4 12.1 
27185 310 4 23 5 12.1 
27176 310 4 24 5 12.1 
27172 310 4 25 5 12.1 
27173 310 4 26 5 12.1 
27179 310 4 27 5 12.1 
27396 321 4 24 3.26795 22 
27397 321 4 25 3 22 
27398 321 4 26 3.26795 22 
27395 321 4 23.2679 4 22 
27386 321 4 24.5 4.13398 22 
27387 321 4 25.5 4.13398 22 
27399 321 4 26.7321 4 22 
27394 321 4 23 5 22 
27385 321 4 24 5 22 
27381 321 4 25 5 22 
27382 321 4 26 5 22 
27388 321 4 27 5 22 
27453 324 4 24 3.26795 30.8 
27454 324 4 25 3 30.8 
27455 324 4 26 3.26795 30.8 
27452 324 4 23.2679 4 30.8 
27443 324 4 24.5 4.13398 30.8 
27444 324 4 25.5 4.13398 30.8 
27456 324 4 26.7321 4 30.8 
27451 324 4 23 5 30.8 
27442 324 4 24 5 30.8 
27438 324 4 25 5 30.8 
27439 324 4 26 5 30.8 
27445 324 4 27 5 30.8 
27051 303 4 23.2679 6 6.6 
27042 303 4 24.5 5.86602 6.6 
27041 303 4 25.5 5.86602 6.6 
27047 303 4 26.7321 6 6.6 
27050 303 4 24 6.73205 6.6 
27049 303 4 25 7 6.6 
27048 303 4 26 6.73205 6.6 
27184 310 4 23.2679 6 12.1 
27175 310 4 24.5 5.86602 12.1 
27174 310 4 25.5 5.86602 12.1 
27180 310 4 26.7321 6 12.1 
27183 310 4 24 6.73205 12.1 
27182 310 4 25 7 12.1 
27181 310 4 26 6.73205 12.1 
27393 321 4 23.2679 6 22 
27384 321 4 24.5 5.86602 22 
27383 321 4 25.5 5.86602 22 
27389 321 4 26.7321 6 22 
27392 321 4 24 6.73205 22 
27391 321 4 25 7 22 
27390 321 4 26 6.73205 22 
27450 324 4 23.2679 6 30.8 
27441 324 4 24.5 5.86602 30.8 
27440 324 4 25.5 5.86602 30.8 
27446 324 4 26.7321 6 30.8 
27449 324 4 24 6.73205 30.8 
27448 324 4 25 7 30.8 
27447 324 4 26 6.73205 30.8 
27264 314 4 25 13 16.5 
27262 314 4 23.2679 14 16.5 
27263 314 4 24 13.2679 16.5 
27265 314 4 26 13.2679 16.5 
27266 314 4 26.7321 14 16.5 
27261 314 4 23 15 16.5 
27252 314 4 24 15 16.5 
27248 314 4 25 15 16.5 
27253 314 4 24.5 14.134 16.5 
27249 314 4 26 15 16.5 
27254 314 4 25.5 14.134 16.5 
27255 314 4 27 15 16.5 
27251 314 4 24.5 15.866 16.5 
27250 314 4 25.5 15.866 16.5 
27260 314 4 23.2679 16 16.5 
27259 314 4 24 16.7321 16.5 
27257 314 4 26 16.7321 16.5 
27256 314 4 26.7321 16 16.5 
27378 320 4 25 13 20.9 
27376 320 4 23.2679 14 20.9 
27377 320 4 24 13.2679 20.9 
27379 320 4 26 13.2679 20.9 
27380 320 4 26.7321 14 20.9 
27375 320 4 23 15 20.9 
27366 320 4 24 15 20.9 
27362 320 4 25 15 20.9 
27367 320 4 24.5 14.134 20.9 
27363 320 4 26 15 20.9 
27368 320 4 25.5 14.134 20.9 
27369 320 4 27 15 20.9 
27365 320 4 24.5 15.866 20.9 
27364 320 4 25.5 15.866 20.9 
27374 320 4 23.2679 16 20.9 
27373 320 4 24 16.7321 20.9 
27371 320 4 26 16.7321 20.9 
27370 320 4 26.7321 16 20.9 
27435 323 4 25 13 25.3 
27433 323 4 23.2679 14 25.3 
27434 323 4 24 13.2679 25.3 
27436 323 4 26 13.2679 25.3 
27437 323 4 26.7321 14 25.3 
27432 323 4 23 15 25.3 
27423 323 4 24 15 25.3 
27419 323 4 25 15 25.3 
27424 323 4 24.5 14.134 25.3 
27420 323 4 26 15 25.3 
27425 323 4 25.5 14.134 25.3 
27426 323 4 27 15 25.3 
27422 323 4 24.5 15.866 25.3 
27421 323 4 25.5 15.866 25.3 
27431 323 4 23.2679 16 25.3 
27430 323 4 24 16.7321 25.3 
27428 323 4 26 16.7321 25.3 
27427 323 4 26.7321 16 25.3 
27258 314 4 25 17 16.5 
27372 320 4 25 17 20.9 
27429 323 4 25 17 25.3 
ITEM: TIMESTEP
100000
ITEM: NUMBER OF ATOMS
475
ITEM: BOX BOUNDS pp pp pp
0.0000000000000000e+00 3.3789999999999999e+01
0.0000000000000000e+00 3.3789999999999999e+01
0.0000000000000000e+00 3.3789999999999999e+01
ITEM: ATOMS id mol type x y z 
27137 308 4 5.53586 5.3856 11.3532 
27134 308 4 5.28755 5.5337 12.3105 
27150 308 4 5.5059 5.08147 14.2464 
27329 318 4 2.64935 4.92661 21.7609 
27339 318 4 2.46499 3.95341 21.6234 
27328 318 4 1.97354 5.50364 22.2194 
27340 318 4 3.4012 4.10976 21.2101 
27330 318 4 3.50953 5.32279 21.4397 
27341 318 4 4.18535 4.74576 20.9811 
27338 318 4 1.62759 4.3186 22.1104 
27337 318 4 1.11336 5.10747 22.5406 
27144 308 4 5.06921 5.98594 10.3746 
27143 308 4 4.41276 6.61322 10.8719 
27140 308 4 5.03925 5.68181 13.2678 
27136 308 4 4.85015 6.07346 11.5912 
27142 308 4 3.99071 6.95124 11.7548 
27135 308 4 4.60185 6.22157 12.5485 
27141 308 4 3.91614 6.90943 12.7865 
27152 308 4 4.20905 6.499 13.6907 
27151 308 4 4.79094 5.82992 14.2251 
27342 318 4 4.60733 5.69098 20.9979 
27331 318 4 4.55407 6.69216 21.256 
27324 318 4 2.83372 5.89982 21.8983 
27325 318 4 3.6939 6.29599 21.5771 
27326 318 4 3.01808 6.87302 22.0357 
27333 318 4 3.20244 7.84622 22.1732 
27332 318 4 4.03985 7.48103 21.6862 
27327 318 4 2.1579 6.47684 22.3569 
27336 318 4 1.0601 6.10865 22.7987 
27335 318 4 1.48208 7.05388 22.8155 
27334 318 4 2.26623 7.68987 22.5865 
27110 306 4 4.59419 16.4673 5.29857 
27112 306 4 5.59218 15.5731 6.78329 
27111 306 4 4.86402 15.9151 6.13167 
27109 306 4 4.855 17.0818 4.50722 
27108 306 4 5.57655 17.5939 3.96968 
27222 312 4 4.77705 22.3487 13.1377 
27223 312 4 5.20383 22.0367 14.0278 
27017 301 4 3.71202 27.2746 0.577956 
27015 301 4 2.02815 26.4047 1.21662 
27014 301 4 1.08768 26.7416 1.48833 
27016 301 4 2.98872 26.5998 0.883406 
27013 301 4 0.419314 27.5202 1.62571 
27005 301 4 1.59543 27.5658 1.23768 
27006 301 4 2.54595 27.4949 0.935222 
27220 312 4 4.39211 24.1233 12.2994 
27221 312 4 4.47994 23.1124 12.505 
27219 312 4 4.5371 25.1104 12.5758 
27214 312 4 5.23241 23.0357 14.0632 
27213 312 4 4.87046 23.5735 13.3018 
27210 312 4 5.26098 24.0347 14.0986 
27212 312 4 4.89904 24.5725 13.3372 
27211 312 4 5.28956 25.0336 14.134 
27218 312 4 4.87605 25.8092 13.2603 
27217 312 4 5.31814 26.0326 14.1694 
27215 312 4 5.62293 23.4968 14.86 
27002 301 4 2.61093 29.2143 0.736396 
27019 301 4 3.78705 29.26 0.34837 
27018 301 4 4.00423 28.2483 0.382119 
27008 301 4 3.11868 30.0386 0.485752 
27009 301 4 2.17822 30.3754 0.757454 
27012 301 4 0.202139 28.5319 1.59196 
27004 301 4 1.15266 28.461 1.2895 
27003 301 4 1.66041 29.2852 1.03886 
27001 301 4 2.10318 28.3901 0.987039 
27011 301 4 0.494347 29.5056 1.39612 
27010 301 4 1.21764 30.1803 1.09067 
27007 301 4 3.0537 28.3192 0.684579 
27145 308 4 5.78416 5.23749 10.3959 
27146 308 4 6.36605 4.56841 10.9302 
27139 308 4 5.72495 4.99395 13.0298 
27147 308 4 6.65896 4.15798 11.8344 
27138 308 4 5.97326 4.84584 12.0725 
27148 308 4 6.5844 4.11617 12.8662 
27149 308 4 6.16235 4.45419 13.749 
27319 317 4 11.1976 3.44141 18.5691 
27318 317 4 10.3588 3.16129 19.1073 
27309 317 4 10.655 4.02288 19.5196 
27317 317 4 9.67868 3.34289 19.8665 
27308 317 4 10.1454 4.41102 20.2874 
27305 317 4 10.9512 4.88448 19.9318 
27316 317 4 9.33957 3.93756 20.6431 
27315 317 4 9.43228 4.78596 21.2292 
27307 317 4 10.4416 5.27261 20.6997 
27314 317 4 9.93199 5.66075 21.4675 
27306 317 4 11.2474 5.74607 20.344 
27313 317 4 10.7048 6.32754 21.2944 
27096 306 4 6.57453 16.6996 5.4544 
27100 306 4 5.71476 16.8907 4.98081 
27101 306 4 5.71928 16.3074 5.79303 
27102 306 4 6.57905 16.1163 6.26662 
27097 306 4 7.4343 16.5086 5.92799 
27103 306 4 8.29407 16.3175 6.40158 
27113 306 4 6.58356 15.533 7.07884 
27114 306 4 7.57252 15.8054 6.93913 
27104 306 4 8.55488 16.932 5.61024 
27107 306 4 6.56551 17.8663 3.82996 
27106 306 4 7.55689 17.8262 4.12551 
27099 306 4 6.57002 17.283 4.64218 
27098 306 4 7.42979 17.0919 5.11577 
27105 306 4 8.28505 17.4842 4.77714 
27224 312 4 5.64592 22.2601 14.9369 
27076 304 4 7.35948 27.5453 6.41175 
27065 304 4 8.35015 27.2463 6.44223 
27066 304 4 9.35048 27.4372 6.25603 
27207 311 4 8.76574 28.0802 9.19976 
27067 304 4 10.0924 28.0671 5.90305 
27216 312 4 5.65151 24.4958 14.8954 
27246 313 4 11.1458 26.9472 14.9055 
27245 313 4 10.1624 27.2041 14.7089 
27244 313 4 9.46698 27.8846 14.3552 
27225 312 4 5.98487 22.959 15.6214 
27226 312 4 6.12986 23.946 15.8978 
27227 312 4 6.04203 24.9569 15.6922 
27228 312 4 5.74492 25.7206 15.0595 
27235 313 4 11.1917 27.8662 14.5137 
27070 304 4 9.4129 30.6049 4.85539 
27063 304 4 7.53307 29.5792 5.49883 
27068 304 4 10.3772 28.967 5.47785 
27062 304 4 8.40421 29.9896 5.22924 
27061 304 4 9.25733 29.4855 5.36398 
27069 304 4 10.1285 29.896 5.09438 
27073 304 4 6.67995 30.0832 5.36409 
27072 304 4 7.4219 30.713 5.0111 
27071 304 4 8.42223 30.904 4.8249 
27064 304 4 7.51505 28.6647 5.90316 
27060 304 4 9.23931 28.5711 5.76831 
27074 304 4 6.39519 29.1832 5.78928 
27208 311 4 9.22171 28.3855 8.32188 
27209 311 4 9.71651 29.1113 7.77396 
27198 311 4 10.1175 30.0631 7.70281 
27199 311 4 10.3173 30.9858 8.12751 
27197 311 4 9.29415 29.1701 8.93759 
27192 311 4 9.74206 30.0089 8.62806 
27193 311 4 9.81449 30.7935 9.24378 
27200 311 4 10.2624 31.6323 8.93425 
27206 311 4 8.47076 28.2772 10.1724 
27196 311 4 8.91867 29.116 9.86284 
27191 311 4 9.36658 29.9548 9.55331 
27194 311 4 9.43901 30.7394 10.169 
27201 311 4 9.96742 31.8293 9.90686 
27075 304 4 6.64391 28.2543 6.17275 
27205 311 4 8.41581 28.9237 10.9791 
27195 311 4 8.9911 29.9006 10.4786 
27202 311 4 9.51144 31.524 10.7847 
27059 304 4 8.36817 28.1607 6.0379 
27058 304 4 8.38619 29.0751 5.63357 
27204 311 4 8.61562 29.8464 11.4038 
27301 316 4 10.3099 31.2179 16.6842 
27242 313 4 9.55862 29.7225 13.5717 
27233 313 4 10.3981 29.2538 13.8469 
27241 313 4 10.3211 30.3874 13.352 
27243 313 4 9.24599 28.8064 13.9389 
27203 311 4 9.01665 30.7982 11.3327 
27234 313 4 10.3522 28.3349 14.2386 
27303 316 4 10.9195 29.3267 16.4564 
27302 316 4 10.4692 30.2524 16.3462 
27229 313 4 11.2375 28.7851 14.122 
27292 316 4 11.2373 29.8638 17.2378 
27291 316 4 10.9325 30.8093 17.3517 
27300 316 4 10.4842 31.9644 17.38 
27290 316 4 11.2503 31.3464 18.1331 
27299 316 4 10.9455 32.292 18.247 
27161 309 4 14.9136 5.53632 13.1885 
27170 309 4 16.8236 3.59882 13.9618 
27159 309 4 15.8271 3.66771 14.0093 
27163 309 4 13.1461 4.7558 13.705 
27155 309 4 14.3683 4.55036 13.7046 
27154 309 4 15.3648 4.48146 13.6571 
27171 309 4 16.598 4.51713 13.5403 
27162 309 4 13.906 5.36411 13.3524 
27160 309 4 15.8989 5.22631 13.2573 
27167 309 4 14.7476 1.9369 14.9253 
27166 309 4 13.7622 2.24691 14.8565 
27168 309 4 15.7552 2.10912 14.7614 
27169 309 4 16.515 2.71742 14.4087 
27165 309 4 13.0631 2.95609 14.5735 
27164 309 4 12.8376 3.87441 14.152 
27156 309 4 13.8341 3.80551 14.1044 
27153 309 4 14.8306 3.73661 14.0569 
27157 309 4 14.2964 2.99176 14.4567 
27158 309 4 15.2929 2.92287 14.4091 
27320 317 4 11.9704 4.1082 18.396 
27321 317 4 12.4701 4.983 18.6344 
27310 317 4 11.4608 4.49634 19.1639 
27311 317 4 11.757 5.35793 19.5761 
27417 322 4 14.0681 3.54079 24.247 
27418 322 4 14.9721 3.63655 23.7517 
27401 322 4 15.3746 4.67705 24.2914 
27407 322 4 15.8552 4.15184 23.5892 
27408 322 4 16.4807 4.94858 23.803 
27416 322 4 13.3853 3.89022 24.9424 
27406 322 4 14.481 4.37152 24.6204 
27400 322 4 14.8939 5.20225 24.9937 
27402 322 4 15.7875 5.50778 24.6648 
27415 322 4 13.1068 4.59121 25.6515 
27405 322 4 14.0003 4.89673 25.3226 
27414 322 4 13.3071 5.45593 26.1843 
27130 307 4 14.8392 11.1888 9.77712 
27131 307 4 15.8088 10.8478 9.65245 
27132 307 4 16.8171 11.0413 9.51975 
27322 317 4 12.5628 5.83139 19.2204 
27323 317 4 12.2237 6.42606 19.997 
27312 317 4 11.5436 6.60767 20.7562 
27409 322 4 16.6811 5.8133 24.3359 
27410 322 4 16.4025 6.51429 25.045 
27403 322 4 15.3068 6.03299 25.367 
27412 322 4 14.8157 6.76796 26.2356 
27411 322 4 15.7198 6.86372 25.7403 
27413 322 4 13.9326 6.25267 26.3982 
27404 322 4 14.4133 5.72746 25.6959 
27035 302 4 14.8485 13.4868 1.81956 
27036 302 4 15.8192 13.1525 1.68551 
27025 302 4 15.415 14.3092 1.87171 
27026 302 4 16.4074 14.2401 1.76959 
27034 302 4 14.1815 14.2618 1.98155 
27033 302 4 13.9967 15.2698 2.12808 
27024 302 4 14.9891 15.2007 2.02597 
27020 302 4 15.9815 15.1316 1.92385 
27032 302 4 14.3438 16.2409 2.21989 
27023 302 4 15.5556 16.0231 2.07811 
27022 302 4 16.548 15.954 1.976 
27037 302 4 16.8333 13.3486 1.61533 
27083 305 4 16.8513 12.6013 7.23979 
27092 305 4 15.6224 11.4033 7.47355 
27093 305 4 16.6436 11.3812 7.30467 
27082 305 4 15.8942 12.3632 7.40453 
27086 305 4 16.7093 15.2429 7.1975 
27077 305 4 16.1659 13.3231 7.33552 
27080 305 4 15.4804 14.0449 7.43125 
27079 305 4 16.4376 14.283 7.26651 
27087 305 4 15.6882 15.2649 7.36637 
27091 305 4 14.7469 11.9397 7.60544 
27090 305 4 14.2516 12.8469 7.665 
27081 305 4 15.2087 13.085 7.50026 
27089 305 4 14.2692 13.8816 7.63629 
27088 305 4 14.795 14.7667 7.52698 
27129 307 4 14.1683 11.9729 9.86037 
27120 307 4 15.3964 12.0156 9.69982 
27121 307 4 16.3854 11.9418 9.57114 
27128 307 4 13.9758 12.9899 9.87989 
27119 307 4 14.9647 12.9161 9.7512 
27115 307 4 15.9537 12.8424 9.62252 
27118 307 4 15.5219 13.7429 9.6739 
27117 307 4 16.5109 13.6691 9.54522 
27127 307 4 14.3132 13.9674 9.83044 
27126 307 4 15.0902 14.6434 9.72529 
27125 307 4 16.0986 14.8369 9.59259 
27031 302 4 15.1297 16.9147 2.23237 
27030 302 4 16.1438 17.1107 2.16219 
27277 315 4 16.5763 21.6886 16.4146 
27280 315 4 15.6342 19.0821 15.8503 
27279 315 4 15.4927 20.1076 15.8434 
27281 315 4 16.2241 18.2599 16.0689 
27271 315 4 16.4709 19.4615 16.2452 
27270 315 4 16.5726 20.4513 16.345 
27278 315 4 15.8375 21.0617 16.0499 
27353 319 4 16.0009 18.4654 19.5052 
27354 319 4 16.2065 19.476 19.4144 
27355 319 4 15.9687 20.4617 19.6235 
27351 319 4 14.5838 17.3867 20.4152 
27352 319 4 15.407 17.7007 19.8715 
27345 319 4 14.9793 18.5418 20.2025 
27343 319 4 14.5515 19.383 20.5335 
27346 319 4 15.379 19.4295 19.974 
27347 319 4 14.9513 20.2706 20.3049 
27356 319 4 15.3511 21.1583 20.0764 
27350 319 4 13.752 17.6077 20.9906 
27361 319 4 13.1344 18.3043 21.4435 
27344 319 4 14.1518 18.4953 20.7621 
27349 319 4 13.7241 19.3364 21.0931 
27348 319 4 14.1238 20.2241 20.8645 
27358 319 4 13.6961 21.0652 21.1955 
27357 319 4 14.5193 21.3792 20.6518 
27360 319 4 12.8966 19.2899 21.6526 
27359 319 4 13.1022 20.3005 21.5618 
27247 313 4 12.1538 27.1829 14.8921 
27236 313 4 12.9163 27.8478 14.6723 
27474 325 4 16.5654 25.8882 31.5195 
27473 325 4 15.5481 25.9781 31.3497 
27472 325 4 14.7039 26.5697 31.2547 
27462 325 4 15.4489 27.21 31.4417 
27463 325 4 16.3796 26.8693 31.5741 
27471 325 4 14.2588 27.5045 31.2599 
27457 325 4 16.1939 27.8504 31.6287 
27232 313 4 11.2833 29.7041 13.7303 
27240 313 4 11.3291 30.623 13.3386 
27231 313 4 12.1227 29.2354 14.0055 
27238 313 4 13.008 29.6857 13.8889 
27239 313 4 12.3126 30.3662 13.5351 
27230 313 4 12.0769 28.3165 14.3972 
27237 313 4 13.229 28.7639 14.3052 
27304 316 4 11.54 28.6888 16.9853 
27293 316 4 12.1646 28.5097 17.7913 
27294 316 4 12.6259 28.8372 18.6583 
27287 316 4 11.8598 29.4552 17.9052 
27288 316 4 12.1776 29.9923 18.6866 
27286 316 4 11.555 30.4008 18.0191 
27295 316 4 12.8002 29.5838 19.3541 
27289 316 4 11.8728 30.9379 18.8005 
27297 316 4 12.1906 31.4749 19.5819 
27298 316 4 11.5701 32.1128 19.053 
27296 316 4 12.6409 30.5493 19.6921 
27460 325 4 16.0081 28.8314 31.6833 
27469 325 4 14.9045 29.3767 31.5388 
27470 325 4 14.3323 28.5319 31.3639 
27461 325 4 15.2631 28.1911 31.4963 
27468 325 4 15.8223 29.8125 31.7378 
27467 325 4 16.8396 29.7226 31.9076 
27185 310 4 22.4142 3.64821 10.9488 
27186 310 4 21.8487 3.41464 11.7839 
27187 310 4 21.7767 3.00553 12.7322 
27188 310 4 22.2175 2.53051 13.5396 
27391 321 4 21.5062 3.25425 23.9726 
27385 321 4 22.2084 1.58753 25.2875 
27392 321 4 21.0152 2.69153 24.6896 
27384 321 4 21.9496 2.33549 24.6763 
27390 321 4 22.3664 3.47539 23.4406 
27394 321 4 21.5328 1.1956 25.912 
27393 321 4 21.025 1.93801 25.3994 
27395 321 4 22.4027 0.663222 26.0899 
27021 302 4 16.9738 15.0625 1.82174 
27038 302 4 17.6192 14.0224 1.62781 
27027 302 4 17.9662 14.9934 1.71962 
27028 302 4 17.7815 16.0015 1.86615 
27029 302 4 17.1144 16.7765 2.02814 
27094 305 4 17.5368 11.8795 7.14406 
27095 305 4 18.0626 12.7645 7.03476 
27078 305 4 17.1231 13.5612 7.17078 
27084 305 4 18.0802 13.7993 7.00604 
27085 305 4 17.5849 14.7064 7.06561 
27116 307 4 16.9426 12.7686 9.49384 
27133 307 4 17.5941 11.7173 9.4146 
27122 307 4 17.9315 12.6948 9.36515 
27123 307 4 17.739 13.7118 9.38467 
27124 307 4 17.0681 14.4959 9.46792 
27261 314 4 22.3255 15.0925 14.8993 
27262 314 4 22.2947 14.1968 15.4175 
27276 315 4 17.511 21.8205 16.8396 
27269 315 4 17.4094 20.8307 16.7398 
27282 315 4 17.1044 17.8613 16.4405 
27283 315 4 18.0391 17.9931 16.8655 
27272 315 4 17.206 18.8511 16.5403 
27267 315 4 17.3077 19.8409 16.64 
27284 315 4 18.7779 18.6201 17.2302 
27285 315 4 19.1227 19.5741 17.4367 
27268 315 4 18.1444 20.2203 17.0349 
27274 315 4 18.9812 20.5997 17.4298 
27275 315 4 18.3913 21.4219 17.2112 
27273 315 4 18.0428 19.2305 16.9351 
27475 325 4 17.4832 26.3241 31.7185 
27458 325 4 17.1246 27.5096 31.7611 
27464 325 4 18.0554 27.1689 31.8935 
27459 325 4 16.9389 28.4907 31.8157 
27465 325 4 18.1289 28.1963 31.9975 
27466 325 4 17.6839 29.131 32.0026 
27440 324 4 23.727 1.03949 0.924395 
27438 324 4 23.9777 1.78279 0.304186 
27444 324 4 23.8642 2.73377 0.591846 
27455 324 4 23.7507 3.68475 0.879506 
27056 303 4 27.9681 1.43925 5.43727 
27447 324 4 23.4763 0.296193 1.5446 
27439 324 4 23.6135 1.99047 1.21205 
27456 324 4 23.4261 3.12071 1.68466 
27446 324 4 23.2676 1.16432 2.06866 
27445 324 4 23.2493 2.19816 2.11992 
27441 324 4 24.0912 0.831803 0.016526 
27055 303 4 27.4472 1.96996 6.15756 
27054 303 4 27.4272 2.68982 6.90134 
27053 303 4 27.9134 3.40592 7.46931 
27183 310 4 24.3281 3.40222 10.4229 
27182 310 4 25.1636 2.98857 10.873 
27184 310 4 23.3218 3.64366 10.4507 
27172 310 4 23.6905 2.75954 12.2063 
27174 310 4 24.6475 2.63655 11.9434 
27176 310 4 23.0524 3.20388 11.5776 
27178 310 4 23.3718 2.4382 13.098 
27173 310 4 24.3287 2.31521 12.8351 
27180 310 4 25.5324 2.10445 12.6287 
27177 310 4 22.7336 2.88254 12.4693 
27190 310 4 24.0593 1.87542 13.962 
27179 310 4 24.9669 1.87088 13.4638 
27189 310 4 23.053 2.11686 13.9897 
27175 310 4 24.0093 3.08088 11.3146 
27181 310 4 25.6044 2.51355 11.6804 
27388 321 4 24.2352 2.76332 23.4141 
27389 321 4 23.3653 3.2957 23.2362 
27383 321 4 22.6252 2.72742 24.0518 
27382 321 4 23.5596 2.37139 24.0385 
27399 321 4 24.743 2.02091 23.9266 
27397 321 4 24.2618 0.704675 25.3535 
27386 321 4 23.1428 1.2315 25.2742 
27387 321 4 23.8184 1.62343 24.6498 
27398 321 4 24.7528 1.26739 24.6365 
27381 321 4 22.884 1.97946 24.663 
27396 321 4 23.4016 0.483532 25.8854 
27450 324 4 24.5293 0.444867 32.7137 
27451 324 4 24.7061 1.36741 32.2784 
27452 324 4 24.6877 2.40125 32.3297 
27453 324 4 24.4791 3.26938 32.8538 
27454 324 4 24.1361 3.73917 33.7102 
27442 324 4 24.3419 1.5751 33.1863 
27443 324 4 24.2284 2.52608 33.474 
27260 314 4 22.8657 15.8868 14.5132 
27251 314 4 23.9985 15.5405 14.8774 
27259 314 4 23.7705 16.3669 14.3626 
27258 314 4 24.7975 16.4041 14.4879 
27257 314 4 25.6715 15.9885 14.8555 
27263 314 4 22.7816 13.4397 15.929 
27253 314 4 23.5041 14.0769 15.6606 
27254 314 4 24.4546 13.8877 15.907 
27252 314 4 23.276 14.9033 15.1458 
27248 314 4 24.2265 14.7141 15.3922 
27249 314 4 25.177 14.5249 15.6387 
27255 314 4 26.1275 14.3356 15.8851 
27250 314 4 24.949 15.3513 15.1239 
27256 314 4 26.1583 15.2314 15.3669 
27264 314 4 23.6556 13.0241 16.2966 
27265 314 4 24.6826 13.0613 16.4219 
27266 314 4 25.5874 13.5413 16.2713 
27370 320 4 27.8137 15.5849 20.729 
27377 320 4 26.1122 12.2132 21.5443 
27378 320 4 27.1404 12.2606 21.433 
27367 320 4 26.3066 13.1729 21.3411 
27379 320 4 27.9972 12.8096 21.2426 
27375 320 4 24.6159 13.5362 21.4396 
27366 320 4 25.5584 13.8343 21.2888 
27362 320 4 26.501 14.1325 21.1379 
27368 320 4 27.2491 13.4711 21.1902 
27374 320 4 24.5487 14.552 21.2516 
27365 320 4 25.7528 14.794 21.0855 
27364 320 4 26.6953 15.0922 20.9347 
27363 320 4 27.4435 14.4307 20.987 
27373 320 4 25.0047 15.4555 21.0332 
27372 320 4 25.8615 16.0044 20.8428 
27371 320 4 26.8897 16.0518 20.7314 
27376 320 4 25.1882 12.6801 21.5468 
27437 323 4 23.858 13.5896 23.1821 
27426 323 4 23.8391 14.6114 23.0167 
27427 323 4 24.0169 15.5764 23.3465 
27436 323 4 24.0686 12.7848 23.7985 
27425 323 4 24.3209 13.5923 24.3317 
27420 323 4 24.2062 14.5055 23.9408 
27421 323 4 24.4585 15.313 24.4741 
27428 323 4 24.3438 16.2262 24.0832 
27435 323 4 24.4144 12.4128 24.7006 
27424 323 4 24.6881 13.4864 25.2558 
27419 323 4 24.5733 14.3997 24.865 
27422 323 4 24.8257 15.2071 25.3982 
27429 323 4 24.7322 16.3866 25.0294 
27434 323 4 24.8028 12.5732 25.6467 
27423 323 4 24.9404 14.2939 25.7891 
27430 323 4 25.078 16.0146 25.9315 
27433 323 4 25.1297 13.223 26.3834 
27432 323 4 25.3075 14.188 26.7132 
27431 323 4 25.2886 15.2098 26.5478 
27448 324 4 23.8192 33.6164 0.68818 
27449 324 4 24.2047 33.6708 33.5189 