ITEM: TIMESTEP
7000000
ITEM: NUMBER OF ATOMS
475
ITEM: BOX BOUNDS pp pp pp
7.1354277009520928e-01 3.3076457229894366e+01
7.1354277009520928e-01 3.3076457229894366e+01
7.1354277009520928e-01 3.3076457229894366e+01
ITEM: ATOMS id mol type x y z 
27440 324 4 5.87685 1.24198 5.09785 
27447 324 4 4.95037 0.928598 5.30644 
27445 324 4 5.97457 1.99066 6.65675 
27446 324 4 5.25504 1.44482 6.15058 
27297 316 4 4.16916 5.85947 15.1079 
27296 316 4 4.60414 5.51464 15.9819 
27294 316 4 4.28505 5.81264 17.9337 
27295 316 4 4.64656 5.4975 17.0162 
27263 314 4 1.08938 7.6219 3.21513 
27187 310 4 1.06642 7.62768 3.16974 
27264 314 4 0.888048 6.66342 3.55078 
27186 310 4 0.873137 6.67067 3.51421 
27262 314 4 0.788979 8.60149 3.06662 
27188 310 4 0.762038 8.60629 3.02295 
27298 316 4 3.45815 6.4396 14.6285 
27299 316 4 2.66165 7.09957 14.6721 
27429 323 4 5.23749 7.53883 14.9322 
27373 320 4 5.22092 7.51582 14.9587 
27372 320 4 4.41502 8.16574 14.9562 
27430 323 4 4.42724 8.18312 14.9484 
27300 316 4 1.99307 7.66255 15.227 
27291 316 4 2.38531 7.35765 16.3625 
27289 316 4 3.65411 6.29853 15.8441 
27286 316 4 3.13906 6.7376 16.5804 
27290 316 4 2.90036 6.91858 15.6263 
27288 316 4 3.89281 6.11755 16.7983 
27374 320 4 5.92567 6.96341 15.4783 
27428 323 4 5.94685 6.97753 15.4358 
27421 323 4 5.40391 7.41304 16.1539 
27365 320 4 5.03216 7.69779 15.9237 
27366 320 4 5.59191 7.26815 16.6324 
27419 323 4 4.86097 7.84855 16.872 
27362 320 4 4.8434 7.87977 16.8888 
27301 316 4 1.63155 7.9777 16.1446 
27423 323 4 4.10116 8.45135 16.6283 
27364 320 4 4.28366 8.3094 16.1801 
27371 320 4 3.72391 8.73904 15.4715 
27431 323 4 3.7332 8.73777 15.48 
27370 320 4 3.33276 9.0821 16.3666 
27432 323 4 3.34135 9.05415 16.3845 
27422 323 4 4.6441 8.01584 15.9102 
27303 316 4 2.10896 7.61572 18.0528 
27292 316 4 2.62401 7.17666 17.3166 
27304 316 4 2.81997 7.0356 18.5322 
27287 316 4 3.37776 6.55661 17.5345 
27293 316 4 3.61647 6.37563 18.4886 
27425 323 4 5.07784 7.68127 17.8338 
27367 320 4 5.40315 7.45013 17.5974 
27420 323 4 5.62078 7.24576 17.1157 
27377 320 4 5.9629 7.02049 18.3061 
27437 323 4 5.98874 6.95934 18.264 
27302 316 4 1.67398 7.96056 17.1789 
27369 320 4 3.34639 9.10299 17.4016 
27433 323 4 3.35668 9.04749 17.4197 
27363 320 4 4.0949 8.49138 17.1452 
27380 320 4 3.76114 8.79612 18.2992 
27434 323 4 3.77508 8.71958 18.3081 
27368 320 4 4.65465 8.06174 17.8538 
27424 323 4 4.31803 8.28407 17.5901 
27436 323 4 5.2947 7.51398 18.7956 
27378 320 4 5.27179 7.59379 18.8214 
27379 320 4 4.46589 8.24372 18.8189 
27435 323 4 4.48445 8.15828 18.8117 
27240 313 4 5.51788 26.4848 0.838053 
27239 313 4 5.52575 25.9997 1.75265 
27126 307 4 5.56144 25.9746 1.82775 
27125 307 4 5.52834 26.4408 0.90397 
27238 313 4 5.91123 25.8927 2.70756 
27127 307 4 5.96633 25.8934 2.77715 
27335 318 4 1.32308 23.8643 27.1766 
27334 318 4 1.15106 22.9428 27.6161 
27336 318 4 1.06833 24.8601 27.0526 
27241 313 4 5.88971 27.218 32.5717 
27124 307 4 5.87591 27.1673 32.6163 
27449 324 4 5.77912 32.8562 3.53895 
27448 324 4 5.1422 32.9432 4.35052 
27451 324 4 7.63208 1.12007 3.12178 
27441 324 4 6.29122 1.02434 4.21411 
27442 324 4 7.2177 1.33772 4.00552 
27452 324 4 8.35161 1.66592 3.62795 
27439 324 4 6.38895 1.77301 5.77301 
27438 324 4 6.80333 1.55537 4.88927 
27443 324 4 7.7298 1.86875 4.68068 
27444 324 4 7.31543 2.0864 5.56442 
27453 324 4 8.65628 2.18214 4.47209 
27454 324 4 8.46446 2.53042 5.42802 
27456 324 4 6.91617 2.41987 6.68933 
27455 324 4 7.82753 2.61743 6.23958 
27427 323 4 6.36526 6.64962 16.3243 
27375 320 4 6.34042 6.65654 16.3759 
27426 323 4 6.38059 6.64296 17.3595 
27376 320 4 6.35405 6.67743 17.411 
27038 302 4 9.7718 11.0614 21.7484 
27089 305 4 9.75825 11.0917 21.7643 
27021 302 4 9.23924 11.4209 22.8082 
27081 305 4 9.24998 11.445 22.838 
27027 302 4 9.57165 10.5018 22.5961 
27090 305 4 9.58224 10.5285 22.615 
27028 302 4 9.19336 10.4348 23.5575 
27091 305 4 9.22817 10.4565 23.5852 
27029 302 4 8.7383 10.8782 24.375 
27092 305 4 8.79091 10.8949 24.415 
27036 302 4 9.48526 12.9666 21.2111 
27087 305 4 9.4478 12.9967 21.24 
27080 305 4 9.31338 12.1783 22.1609 
27026 302 4 9.3235 12.1517 22.1308 
27037 302 4 9.74017 11.9636 21.2414 
27088 305 4 9.70904 11.9951 21.261 
27086 305 4 9.04453 13.8281 21.7069 
27035 302 4 9.07535 13.8016 21.6655 
27078 305 4 8.58546 13.278 23.2839 
27025 302 4 8.99108 13.0708 22.3429 
27079 305 4 8.98112 13.0948 22.3839 
27020 302 4 8.90682 12.3399 23.0202 
27077 305 4 8.91772 12.3615 23.0609 
27024 302 4 8.57441 13.2589 23.2323 
27023 302 4 8.49015 12.528 23.9097 
27083 305 4 8.52206 12.5447 23.9609 
27022 302 4 8.82256 11.609 23.6976 
27082 305 4 8.85432 11.6282 23.7379 
27084 305 4 8.2532 14.1945 23.5069 
27033 302 4 8.242 14.1779 23.4444 
27085 305 4 8.60727 14.2665 22.5366 
27034 302 4 8.62028 14.245 22.483 
27031 302 4 8.07347 12.7162 24.7991 
27094 305 4 8.1264 12.7279 24.8609 
27030 302 4 8.32839 11.7132 24.8294 
27093 305 4 8.38764 11.7263 24.8819 
27032 302 4 8.04185 13.6184 24.2921 
27095 305 4 8.07719 13.6313 24.3576 
27219 312 4 11.2959 12.4079 26.6636 
27277 315 4 11.4278 12.369 26.6482 
27220 312 4 10.4889 12.982 26.9653 
27276 315 4 10.5944 12.8834 26.984 
27214 312 4 11.1284 15.0266 26.3243 
27274 315 4 10.0094 14.7959 26.9629 
27222 312 4 10.0249 14.9256 26.8793 
27221 312 4 10.0236 13.9035 27.0443 
27275 315 4 10.0753 13.7717 27.0992 
27213 312 4 10.8941 14.0911 26.5891 
27268 315 4 10.8883 14.5374 26.5618 
27269 315 4 11.1808 13.5811 26.5723 
27223 312 4 10.4923 15.7744 26.5146 
27224 312 4 11.3006 16.2224 26.0479 
27285 315 4 10.4145 15.6815 26.6117 
27273 315 4 11.4746 15.2351 26.1501 
27284 315 4 11.1821 16.1914 26.1396 
27117 307 4 6.41244 27.2896 1.08836 
27229 313 4 6.93498 27.411 1.9031 
27231 313 4 6.4231 26.6518 2.30533 
27118 307 4 6.25521 26.6932 1.87556 
27232 313 4 6.22643 26.9479 1.37057 
27115 307 4 6.94898 27.4119 1.92338 
27236 313 4 7.32833 26.8189 3.7726 
27120 307 4 7.48552 27.5342 2.75839 
27128 307 4 6.63452 26.2191 3.49778 
27129 307 4 7.38697 26.8644 3.79655 
27119 307 4 6.79175 26.8155 2.71058 
27230 313 4 7.13166 27.1149 2.83785 
27237 313 4 6.57102 26.1926 3.44691 
27130 307 4 8.02206 27.6564 3.59341 
27247 313 4 7.98025 27.6039 3.59736 
27121 307 4 7.64275 28.1305 1.97119 
27234 313 4 7.44685 28.1701 1.50086 
27116 307 4 7.10621 28.0083 1.13617 
27233 313 4 6.7383 27.707 0.968342 
27235 313 4 7.64353 27.874 2.43562 
27133 307 4 7.93163 28.9304 1.0696 
27244 313 4 7.95873 28.9292 1.09863 
27132 307 4 8.33652 28.8492 2.019 
27245 313 4 8.34421 28.8223 2.05354 
27246 313 4 8.35208 28.3371 2.96814 
27131 307 4 8.36962 28.3829 2.94278 
27450 324 4 6.69048 33.0538 3.0892 
27123 307 4 6.511 27.9593 32.4131 
27243 313 4 7.29894 28.6293 32.7222 
27122 307 4 7.26345 28.6046 32.7119 
27242 313 4 6.54163 28.003 32.3965 
27066 304 4 14.7343 11.3698 31.622 
27279 315 4 13.1197 12.8762 25.7097 
27217 312 4 13.0368 12.7832 25.7533 
27216 312 4 12.635 14.4665 25.6788 
27272 315 4 12.3534 14.9766 25.749 
27271 315 4 12.6459 14.0204 25.7596 
27280 315 4 13.5248 13.7619 25.3584 
27228 312 4 13.5042 13.632 25.3886 
27281 315 4 13.4589 14.786 25.2221 
27227 312 4 13.5055 14.6541 25.2236 
27283 315 4 12.1063 16.1887 25.6731 
27225 312 4 12.2332 16.1497 25.6043 
27226 312 4 13.0402 15.5756 25.3026 
27282 315 4 12.9397 15.6743 25.3373 
27215 312 4 11.9989 15.2142 25.8691 
27278 315 4 12.3521 12.3664 26.1818 
27218 312 4 12.2286 12.3352 26.22 
27212 312 4 11.5302 13.3434 26.3988 
27270 315 4 12.0596 13.3226 26.1712 
27211 312 4 12.4007 13.531 25.9436 
27267 315 4 11.7671 14.2789 26.1607 
27210 312 4 11.7646 14.2788 26.134 
27076 304 4 12.9414 12.2322 31.8279 
27075 304 4 12.6086 13.1703 32.1124 
27065 304 4 13.7194 11.5731 31.6484 
27059 304 4 14.1613 12.4236 31.9341 
27064 304 4 13.6059 13.2222 32.1661 
27058 304 4 14.6031 13.274 32.2198 
27060 304 4 15.1585 12.4754 31.9878 
27067 304 4 15.7139 11.6768 31.7558 
27068 304 4 16.396 12.4117 32.014 
27074 304 4 12.8102 14.1363 32.4257 
27073 304 4 13.4923 14.8712 32.6838 
27062 304 4 15.0449 14.1244 32.5055 
27063 304 4 14.0477 14.0726 32.4518 
27071 304 4 15.4868 14.9749 32.7912 
27070 304 4 16.2648 14.3158 32.6118 
27061 304 4 15.6004 13.3258 32.2735 
27069 304 4 16.5976 13.3776 32.3273 
27072 304 4 14.472 15.1781 32.8176 
27395 321 4 13.287 28.7989 5.25554 
27160 309 4 13.2894 28.8374 5.26746 
27171 309 4 12.3512 29.2192 5.48146 
27394 321 4 12.344 29.1805 5.44819 
27161 309 4 14.3207 28.9054 5.32954 
27396 321 4 14.3165 28.8676 5.34048 
27397 321 4 15.1568 29.368 5.68026 
27162 309 4 15.1685 29.405 5.65107 
27159 309 4 12.6968 30.2323 6.10602 
27393 321 4 11.7403 29.9099 5.86682 
27385 321 4 12.977 29.8297 5.86987 
27170 309 4 11.7573 29.9485 5.91421 
27154 309 4 13.4629 29.6768 5.78264 
27386 321 4 13.9633 29.6733 5.81601 
27155 309 4 14.4024 29.9606 5.97445 
27158 309 4 12.8703 31.0717 6.6212 
27392 321 4 11.6375 30.7919 6.39926 
27384 321 4 12.6238 30.6355 6.3454 
27169 309 4 11.6669 30.8299 6.44974 
27382 321 4 14.2431 31.1283 6.71322 
27387 321 4 14.5963 30.3226 6.23769 
27156 309 4 14.5759 30.8 6.48963 
27153 309 4 13.6364 30.5162 6.29782 
27381 321 4 13.61 30.479 6.29154 
27163 309 4 15.6058 30.2024 6.1459 
27399 321 4 15.4798 31.0481 6.71626 
27164 309 4 15.5155 31.0838 6.68143 
27398 321 4 15.5826 30.1661 6.18383 
27383 321 4 13.2568 31.2847 6.76708 
27168 309 4 12.1042 31.6273 6.94457 
27391 321 4 12.0633 31.59 6.90283 
27390 321 4 12.9036 32.0904 7.24261 
27167 309 4 12.9521 32.1269 7.2661 
27157 309 4 13.8099 31.3556 6.813 
27388 321 4 14.8761 31.7775 7.1349 
27165 309 4 14.9216 31.8132 7.11418 
27166 309 4 13.9833 32.195 7.32818 
27389 321 4 13.9331 32.1591 7.32755 
27145 308 4 12.2399 31.3076 27.5991 
27146 308 4 12.8845 31.9486 27.1036 
27147 308 4 13.7368 32.5363 27.0993 
27148 308 4 14.5684 32.9134 27.5872 
27144 308 4 11.9758 30.785 28.453 
27143 308 4 12.1629 30.521 29.4365 
27136 308 4 12.9113 31.1354 29.1865 
27137 308 4 12.9498 31.5287 28.2679 
27138 308 4 13.6982 32.1431 28.0179 
27134 308 4 13.6597 31.7498 28.9366 
27139 308 4 14.4082 32.3642 28.6867 
27149 308 4 15.1566 32.9786 28.4367 
27150 308 4 15.3437 32.7146 29.4202 
27142 308 4 12.7511 30.5863 30.286 
27141 308 4 13.5827 30.9633 30.7739 
27140 308 4 14.3696 31.971 29.6053 
27135 308 4 13.6212 31.3566 29.8553 
27151 308 4 15.0796 32.1921 30.2741 
27152 308 4 14.435 31.5511 30.7696 
27354 319 4 20.8827 5.15406 22.1717 
27415 322 4 20.8915 5.15904 22.1243 
27355 319 4 20.508 6.02347 21.7526 
27416 322 4 20.5415 6.05337 21.7376 
27405 322 4 20.9095 5.79822 22.8932 
27346 319 4 20.8843 5.82184 22.9161 
27404 322 4 21.2257 5.49161 23.7911 
27353 319 4 21.2582 4.64251 22.9897 
27414 322 4 21.2511 4.60724 22.9232 
27345 319 4 21.21 5.55775 23.824 
27352 319 4 21.534 4.62589 23.9875 
27413 322 4 21.5239 4.54583 23.92 
27411 322 4 21.5599 5.82419 25.4578 
27350 319 4 21.5374 5.96145 25.4763 
27351 319 4 21.6362 5.10865 24.8977 
27412 322 4 21.637 4.99127 24.8477 
27356 319 4 20.2346 7.01779 21.8448 
27417 322 4 20.295 7.05061 21.8665 
27461 325 4 22.2556 9.47845 21.6719 
27044 303 4 22.2651 9.48639 21.6646 
27469 325 4 21.7685 8.34772 21.814 
27053 303 4 21.7637 8.36095 21.7989 
27054 303 4 21.4496 9.14354 21.1982 
27470 325 4 21.4423 9.12339 21.2108 
27472 325 4 22.0681 10.9867 20.8411 
27056 303 4 22.0994 11.001 20.8407 
27471 325 4 21.552 10.0893 20.8547 
27055 303 4 21.5724 10.1099 20.8475 
27357 319 4 20.1358 7.87058 22.4234 
27418 322 4 20.2179 7.88353 22.4766 
27343 319 4 20.886 6.48962 23.6605 
27400 322 4 20.9275 6.4374 23.6621 
27347 319 4 20.5603 6.7537 22.7527 
27406 322 4 20.6112 6.744 22.7643 
27401 322 4 20.6292 7.38318 23.5332 
27348 319 4 20.562 7.42148 23.4971 
27358 319 4 20.238 8.35335 23.3336 
27407 322 4 20.331 8.32897 23.4043 
27349 319 4 20.8877 7.1574 24.405 
27402 322 4 20.9454 7.07658 24.431 
27360 319 4 20.8894 7.82518 25.1494 
27409 322 4 20.9634 7.71576 25.1999 
27361 319 4 21.264 6.95576 25.5685 
27410 322 4 21.3134 6.82143 25.5867 
27344 319 4 21.2117 6.22553 24.5684 
27403 322 4 21.2437 6.1308 24.56 
27408 322 4 20.6038 8.26756 24.4011 
27359 319 4 20.5138 8.33673 24.3313 
27106 306 4 21.8013 16.9701 5.87176 
27108 306 4 21.9189 18.2435 7.40961 
27107 306 4 21.6091 17.6877 6.59291 
27045 303 4 22.59 10.4151 21.4858 
27457 325 4 23.0688 9.83351 22.133 
27039 303 4 23.0806 9.82923 22.1309 
27040 303 4 23.4056 10.758 21.9521 
27463 325 4 23.3817 10.7652 21.9482 
27462 325 4 22.5685 10.4101 21.4871 
27460 325 4 22.7559 8.90184 22.3178 
27051 303 4 23.2719 8.08031 23.0822 
27467 325 4 23.2853 8.0919 23.0923 
27459 325 4 23.5692 9.2569 22.779 
27042 303 4 23.5712 9.24335 22.776 
27466 325 4 24.0695 8.68029 23.4249 
27050 303 4 24.0618 8.65747 23.4211 
27052 303 4 22.4307 7.97178 22.4884 
27468 325 4 22.443 7.97017 22.5027 
27043 303 4 22.7557 8.90051 22.3097 
27049 303 4 24.5888 9.5486 23.4142 
27465 325 4 24.5856 9.57769 23.4114 
27458 325 4 23.8821 10.1886 22.5941 
27041 303 4 23.8961 10.1721 22.5972 
27048 303 4 24.7117 10.5149 23.0635 
27464 325 4 24.6953 10.5436 23.0553 
27475 325 4 24.3692 11.3193 22.452 
27047 303 4 24.3975 11.2975 22.4629 
27104 306 4 23.3647 15.8106 5.41172 
27105 306 4 22.4439 16.283 5.43942 
27103 306 4 24.3171 15.6794 5.79608 
27097 306 4 23.8997 16.3817 6.37283 
27098 306 4 22.9631 16.6835 6.19449 
27113 306 4 25.3555 16.4803 7.30623 
27102 306 4 24.4189 16.7822 7.1279 
27114 306 4 25.0457 15.9245 6.48952 
27057 303 4 22.8893 11.5782 21.1796 
27046 303 4 23.7305 11.6867 21.7733 
27473 325 4 22.8524 11.5751 21.1737 
27474 325 4 23.6947 11.6968 21.7633 
27100 306 4 23.0649 17.7863 7.52631 
27101 306 4 24.0015 17.4845 7.70464 
27099 306 4 22.5457 17.3858 6.77124 
27096 306 4 23.4823 17.084 6.94957 
27109 306 4 22.6475 18.4886 8.10305 
27110 306 4 23.5998 18.3574 8.48742 
27112 306 4 25.1633 17.1979 8.02737 
27111 306 4 24.5207 17.885 8.45972 
27209 311 4 24.9631 24.8819 3.22825 
27015 301 4 24.9688 24.882 3.20846 
27208 311 4 24.5124 25.7121 2.80446 
27016 301 4 24.5262 25.7155 2.7828 
27198 311 4 25.3376 24.3914 4.05951 
27014 301 4 25.3352 24.3883 4.04147 
27018 301 4 23.875 27.4773 3.47002 
27206 311 4 23.8537 27.4703 3.49395 
27207 311 4 24.1064 26.6595 2.90172 
27017 301 4 24.1258 26.6654 2.87853 
27006 301 4 24.6051 25.9328 3.75574 
27197 311 4 24.5957 25.9308 3.77673 
27007 301 4 24.2795 26.8137 4.09935 
27196 311 4 24.2663 26.8099 4.12148 
27012 301 4 25.4931 24.8229 5.98735 
27199 311 4 25.5356 24.372 5.07553 
27013 301 4 25.5271 24.3666 5.05861 
27004 301 4 25.0886 25.4865 5.35802 
27005 301 4 25.0096 25.2692 4.38508 
27193 311 4 25.0915 25.4892 5.37653 
27192 311 4 25.0082 25.2705 4.40426 
27200 311 4 25.5041 24.8289 6.00406 
27003 301 4 24.763 26.3674 5.70163 
27194 311 4 24.7622 26.3683 5.72128 
27001 301 4 24.6841 26.1501 4.72869 
27002 301 4 24.3585 27.031 5.0723 
27191 311 4 24.6789 26.1496 4.749 
27195 311 4 24.3496 27.0286 5.09375 
27011 301 4 25.2424 25.6348 6.57884 
27201 311 4 25.2515 25.6396 6.59629 
27010 301 4 24.842 26.5847 6.67458 
27202 311 4 24.8454 26.587 6.69355 
27203 311 4 24.3948 27.4172 6.26976 
27009 301 4 24.3993 27.4182 6.24891 
27205 311 4 23.8222 27.9271 4.42248 
27019 301 4 23.841 27.9336 4.39876 
27204 311 4 24.0203 27.9077 5.4385 
27008 301 4 24.0329 27.9119 5.41591 
27265 314 4 32.6018 5.98286 3.98362 
27185 310 4 32.5969 5.99169 3.96404 
27183 310 4 30.7396 6.07232 4.70176 
27255 314 4 30.7293 6.06162 4.68202 
27184 310 4 31.6831 5.77268 4.39872 
27266 314 4 31.6788 5.76259 4.39769 
27174 310 4 30.6434 7.74862 4.27632 
27250 314 4 30.6435 7.74003 4.26272 
27249 314 4 31.1545 6.88114 4.29777 
27175 310 4 31.1558 6.89031 4.30461 
27172 310 4 31.572 7.70831 3.90746 
27248 314 4 31.5798 7.70065 3.91352 
27177 310 4 32.5007 7.66799 3.5386 
27253 314 4 32.516 7.66128 3.56433 
27254 314 4 32.0908 6.84176 3.94857 
27176 310 4 32.0845 6.85 3.93575 
27179 310 4 30.5472 9.42492 3.85088 
27259 314 4 30.5577 9.41845 3.84343 
27251 314 4 31.0687 8.55955 3.87848 
27173 310 4 31.0596 8.56661 3.87917 
27258 314 4 29.9086 8.73789 4.27627 
27180 310 4 29.908 8.74595 4.30071 
27252 314 4 32.005 8.52017 3.52928 
27178 310 4 31.9882 8.5263 3.51031 
27189 310 4 32.4045 9.34429 3.11316 
27260 314 4 31.4807 9.63872 3.42936 
27261 314 4 32.4302 9.33969 3.14503 
27190 310 4 31.4609 9.64393 3.4162 
27257 314 4 29.7072 7.77941 4.61192 
27181 310 4 29.7147 7.78893 4.64518 
27182 310 4 30.0191 6.81032 4.79197 
27256 314 4 30.0076 6.79982 4.76043 
27332 318 4 32.176 22.2244 28.9176 
27312 317 4 31.1517 26.9588 12.9948 
27323 317 4 31.338 25.9405 12.9812 
27322 317 4 31.6562 25.0807 13.4623 
27321 317 4 32.021 24.6099 14.3091 
27310 317 4 32.0825 25.5932 15.061 
27311 317 4 31.7432 25.8065 14.1448 
27307 317 4 31.578 27.4713 14.5935 
27305 317 4 31.8302 26.5323 14.8272 
27306 317 4 31.491 26.7455 13.911 
27320 317 4 32.3347 24.6542 15.2948 
27319 317 4 32.5132 25.2017 16.1552 
27308 317 4 31.9173 27.258 15.5097 
27317 317 4 32.3225 27.1241 16.6733 
27309 317 4 32.1695 26.319 15.7435 
27318 317 4 32.5088 26.1057 16.6597 
27337 318 4 32.818 25.6634 27.2774 
27327 318 4 32.8896 24.003 27.7654 
27331 318 4 31.3686 22.62 29.4309 
27325 318 4 31.7309 23.3808 28.8926 
27326 318 4 32.5273 23.2421 28.3038 
27333 318 4 32.9613 22.3426 28.2534 
27340 318 4 30.6726 25.3405 29.0922 
27329 318 4 31.6593 25.0412 28.4046 
27324 318 4 32.0933 24.1417 28.3542 
27330 318 4 31.2969 24.2804 28.9429 
27328 318 4 32.4556 24.9026 27.8158 
27339 318 4 31.2253 25.9408 28.455 
27338 318 4 32.0106 26.059 27.7907 
27342 318 4 30.7553 23.4233 29.6557 
27341 318 4 30.5006 24.4191 29.5317 
27313 317 4 31.1472 27.8628 13.4993 
27314 317 4 31.3258 28.4104 14.3597 
27316 317 4 32.0043 27.9838 16.1922 
27315 317 4 31.6395 28.4546 15.3453 
ITEM: TIMESTEP
7050000
ITEM: NUMBER OF ATOMS
475
ITEM: BOX BOUNDS pp pp pp
7.1354277009520928e-01 3.3076457229894366e+01
7.1354277009520928e-01 3.3076457229894366e+01
7.1354277009520928e-01 3.3076457229894366e+01
ITEM: ATOMS id mol type x y z 
27448 324 4 5.65063 1.59683 3.42872 
27445 324 4 5.84397 2.72109 6.01702 
27447 324 4 5.19824 1.91807 4.30281 
27446 324 4 5.26901 2.32958 5.25019 
27298 316 4 2.44015 3.19828 15.201 
27296 316 4 3.9297 2.04345 15.8703 
27297 316 4 3.26681 2.58048 15.2838 
27299 316 4 1.67123 3.73131 15.6443 
27290 316 4 2.16342 3.30662 16.4043 
27300 316 4 1.16607 4.03675 16.4949 
27289 316 4 2.96121 2.7312 16.224 
27295 316 4 4.2512 1.73109 16.8036 
27420 323 4 6.1019 5.95918 16.6733 
27294 316 4 4.14517 1.72709 17.8334 
27293 316 4 3.64001 2.03253 18.684 
27287 316 4 3.14782 2.45723 17.9241 
27292 316 4 2.35003 3.03265 18.1044 
27291 316 4 1.85783 3.45734 17.3445 
27302 316 4 1.38154 3.7204 18.458 
27301 316 4 1.06004 4.03276 17.5247 
27286 316 4 2.65562 2.88192 17.1642 
27425 323 4 5.97215 5.75041 17.6427 
27368 320 4 5.63851 5.89144 18.0492 
27380 320 4 5.11858 5.985 19.1704 
27303 316 4 2.04443 3.18337 19.0446 
27304 316 4 2.87109 2.56557 19.1273 
27435 323 4 5.91348 5.40554 18.8317 
27379 320 4 5.90553 5.3838 18.8684 
27288 316 4 3.45341 2.30651 16.9839 
27434 323 4 5.12336 6.00377 19.1312 
27428 323 4 5.64238 6.83887 15.2538 
27374 320 4 5.6244 6.81316 15.2897 
27373 320 4 4.83746 7.41436 15.5916 
27429 323 4 4.85226 7.4371 15.5533 
27421 323 4 5.51263 6.6301 16.2231 
27365 320 4 5.10448 6.90672 16.4108 
27422 323 4 4.79359 7.09224 16.7423 
27372 320 4 4.19361 7.74351 16.3326 
27430 323 4 4.20432 7.76316 16.292 
27366 320 4 5.85754 6.25005 16.3689 
27370 320 4 3.9407 7.32943 18.2729 
27432 323 4 3.94481 7.34561 18.2307 
27371 320 4 3.86537 7.71243 17.314 
27431 323 4 3.87217 7.72967 17.272 
27363 320 4 4.88545 6.54811 18.0912 
27423 323 4 4.66384 6.88347 17.7116 
27362 320 4 5.37149 6.39908 17.23 
27419 323 4 5.38287 6.42132 17.1925 
27364 320 4 4.61843 7.05575 17.272 
27369 320 4 4.39941 6.69715 18.9524 
27433 323 4 4.40278 6.71389 18.9112 
27424 323 4 5.25312 6.21255 18.1618 
27319 317 4 1.01939 22.7225 15.4104 
27317 317 4 1.04037 24.1674 16.7933 
27318 317 4 1.23932 23.3278 16.2211 
27449 324 4 6.50495 1.45192 2.86213 
27441 324 4 6.82782 1.85343 3.71924 
27450 324 4 7.5323 1.52219 2.75487 
27451 324 4 8.45739 1.78879 3.13567 
27442 324 4 7.80404 2.02187 3.85601 
27452 324 4 9.03235 2.1803 3.9025 
27440 324 4 6.17446 2.08651 4.43958 
27438 324 4 7.15068 2.25494 4.57634 
27439 324 4 6.49733 2.48802 5.29668 
27444 324 4 7.47355 2.65645 5.43345 
27443 324 4 8.1269 2.42338 4.71311 
27453 324 4 9.10312 2.59181 4.84988 
27454 324 4 8.65074 2.91306 5.72397 
27456 324 4 6.76907 2.9877 6.39782 
27455 324 4 7.79641 3.05796 6.29055 
27376 320 4 6.80228 5.46873 16.1872 
27426 323 4 6.82093 5.49704 16.1542 
27375 320 4 6.34358 6.10101 15.5077 
27367 320 4 6.12455 5.74241 17.1881 
27437 323 4 6.89358 5.11298 17.1129 
27377 320 4 6.87761 5.08573 17.1461 
27378 320 4 6.54937 5.05465 18.1275 
27436 323 4 6.56143 5.07949 18.0929 
27076 304 4 11.2863 10.827 1.78852 
27427 323 4 6.36296 6.12876 15.4737 
27030 302 4 9.55325 11.4607 24.3432 
27028 302 4 10.9346 10.1037 23.8426 
27091 305 4 10.9436 10.1073 23.8431 
27082 305 4 10.633 11.3022 23.7345 
27022 302 4 10.6219 11.2982 23.7369 
27021 302 4 11.4782 11.0631 23.2769 
27092 305 4 10.1157 10.5994 24.223 
27029 302 4 10.1056 10.5933 24.2232 
27093 305 4 9.56503 11.4681 24.3411 
27081 305 4 11.4885 11.0643 23.2746 
27075 304 4 11.3068 11.5937 2.48394 
27032 302 4 9.75684 13.3603 23.7512 
27095 305 4 9.77157 13.3657 23.744 
27083 305 4 10.2946 12.2428 23.7059 
27077 305 4 11.1502 12.005 23.246 
27078 305 4 10.8118 12.9456 23.2173 
27024 302 4 10.7982 12.9433 23.2242 
27023 302 4 10.2819 12.2383 23.7105 
27020 302 4 11.1382 12.0032 23.2506 
27084 305 4 10.4735 13.8862 23.1887 
27033 302 4 10.4582 13.8834 23.1978 
27085 305 4 11.3567 13.9026 22.6488 
27034 302 4 11.3418 13.9028 22.6585 
27094 305 4 9.43905 12.4806 24.1658 
27031 302 4 9.4256 12.4735 24.1704 
27239 313 4 6.803 25.0089 1.19973 
27238 313 4 7.10298 25.0417 2.1901 
27127 307 4 7.08924 25.0145 2.15774 
27126 307 4 6.79971 24.9891 1.16405 
27231 313 4 7.54143 25.8312 1.76062 
27118 307 4 7.38955 25.7929 1.24133 
27119 307 4 7.79834 26.0303 2.12259 
27229 313 4 7.97988 26.6208 1.33114 
27115 307 4 7.97939 26.5968 1.31861 
27230 313 4 8.12219 26.4376 2.3039 
27121 307 4 8.56922 27.4007 1.39588 
27235 313 4 8.56064 27.2271 1.87442 
27120 307 4 8.38817 26.8342 2.19987 
27234 313 4 8.41833 27.4103 0.901658 
27128 307 4 7.61728 25.4638 2.92658 
27237 313 4 7.63792 25.4975 2.95031 
27129 307 4 8.24235 26.2168 3.26457 
27236 313 4 8.26449 26.2543 3.27666 
27130 307 4 8.79696 27.0716 3.08113 
27247 313 4 8.8148 27.1094 3.08171 
27232 313 4 7.39912 26.0144 0.787858 
27240 313 4 6.81837 25.4081 32.6075 
27125 307 4 6.82628 25.3945 32.5747 
27123 307 4 7.71642 26.9768 31.7356 
27233 313 4 7.83757 26.804 32.7213 
27117 307 4 7.5706 26.3594 32.8003 
27242 313 4 7.69527 26.9872 31.7485 
27124 307 4 7.16181 26.1221 31.919 
27241 313 4 7.14496 26.1322 31.9435 
27116 307 4 8.16044 27.1633 32.8775 
27245 313 4 9.15676 28.2326 1.46254 
27132 307 4 9.15906 28.2045 1.47316 
27246 313 4 9.14139 27.8334 2.4177 
27131 307 4 9.1325 27.7991 2.42543 
27243 313 4 8.32184 27.744 32.0749 
27244 313 4 8.85678 28.1999 32.8351 
27133 307 4 8.86953 28.1792 32.8424 
27122 307 4 8.34149 27.7298 32.0735 
27059 304 4 12.4874 10.816 1.48311 
27065 304 4 11.7778 10.2176 1.11098 
27060 304 4 13.4325 10.7264 1.16875 
27061 304 4 14.1421 11.3248 1.54087 
27058 304 4 13.197 11.4144 1.85523 
27069 304 4 15.0872 11.2351 1.22652 
27038 302 4 12.5196 10.6462 22.7499 
27089 305 4 12.5288 10.6442 22.7479 
27027 302 4 11.8182 10.123 23.3033 
27090 305 4 11.8269 10.1237 23.3032 
27067 304 4 13.668 10.0384 32.8452 
27066 304 4 12.6495 9.929 32.9958 
27068 304 4 14.5602 10.5164 33.0625 
27063 304 4 12.9615 12.1024 2.5417 
27062 304 4 13.9066 12.0128 2.22735 
27071 304 4 14.6162 12.6112 2.59947 
27070 304 4 15.1077 12.0018 1.92193 
27074 304 4 11.8338 12.3124 3.01089 
27073 304 4 12.726 12.7904 3.22818 
27072 304 4 13.7445 12.8998 3.07759 
27064 304 4 12.2519 11.504 2.16958 
27086 305 4 12.1846 13.4105 22.2689 
27087 305 4 12.7354 12.5418 22.1508 
27036 302 4 12.7232 12.5458 22.1579 
27035 302 4 12.1708 13.4132 22.2779 
27026 302 4 11.9945 11.7681 22.7906 
27080 305 4 12.0058 11.7671 22.786 
27212 312 4 13.8467 15.1156 27.43 
27271 315 4 14.6487 16.0084 26.6967 
27279 315 4 15.526 15.2036 27.0411 
27267 315 4 13.6775 15.9593 26.9302 
27272 315 4 14.019 16.712 26.3672 
27227 312 4 15.2085 16.8569 25.976 
27274 315 4 11.7352 15.8612 27.3971 
27228 312 4 15.6279 16.0273 26.4318 
27281 315 4 15.1933 16.8851 26.0105 
27278 315 4 14.9369 14.5522 27.5892 
27218 312 4 14.9338 14.5374 27.5714 
27215 312 4 13.5278 16.7942 26.3903 
27210 312 4 13.6873 15.9549 26.9101 
27211 312 4 14.6073 15.5666 26.9629 
27280 315 4 15.6199 16.0575 26.4632 
27213 312 4 12.9266 15.5039 27.3772 
27217 312 4 15.5274 15.1784 27.0157 
27268 315 4 12.7064 15.9103 27.1636 
27214 312 4 12.7672 16.3432 26.8573 
27270 315 4 14.3072 15.2558 27.2597 
27216 312 4 14.4479 16.4059 26.4431 
27079 305 4 11.6674 12.7078 22.7574 
27269 315 4 13.336 15.2067 27.4932 
27222 312 4 11.7466 15.8825 27.3885 
27025 302 4 11.6545 12.7082 22.7642 
27037 302 4 12.8508 11.533 22.3307 
27273 315 4 13.0479 16.6629 26.6007 
27285 315 4 11.829 16.7151 26.8193 
27088 305 4 12.8613 11.5293 22.3261 
27223 312 4 11.8471 16.7315 26.8045 
27276 315 4 12.9945 14.454 28.0562 
27220 312 4 12.9931 14.465 28.0497 
27219 312 4 14.0061 14.2764 27.9498 
27277 315 4 14.0103 14.2778 27.9608 
27221 312 4 12.166 15.0529 27.8442 
27275 315 4 12.1618 15.0336 27.8498 
27282 315 4 14.3605 17.4647 25.8042 
27226 312 4 14.3814 17.4448 25.7705 
27284 315 4 12.4182 17.3665 26.2711 
27283 315 4 13.3448 17.6409 25.8996 
27225 312 4 13.3684 17.6335 25.8704 
27224 312 4 12.4407 17.3724 26.2489 
27163 309 4 15.8039 31.2428 5.69515 
27387 321 4 14.9154 30.984 6.07871 
27398 321 4 15.804 31.2582 5.71103 
27164 309 4 15.2185 32.096 5.65992 
27397 321 4 15.9094 30.2555 5.94676 
27162 309 4 15.9143 30.2402 5.92855 
27165 309 4 14.3149 32.5712 5.8323 
27388 321 4 14.3205 32.5933 5.84105 
27399 321 4 15.2225 32.1138 5.67234 
27156 309 4 14.6248 31.3906 6.04733 
27170 309 4 12.8439 29.2744 7.20955 
27393 321 4 12.831 29.3057 7.22042 
27394 321 4 13.7329 28.8263 7.05171 
27171 309 4 13.7475 28.7992 7.03717 
27160 309 4 14.727 28.8294 6.70336 
27395 321 4 14.7136 28.8515 6.7208 
27392 321 4 12.2494 30.1614 7.18173 
27169 309 4 12.2585 30.1276 7.17432 
27158 309 4 13.0896 30.9077 6.68783 
27384 321 4 13.1381 30.4356 6.81406 
27159 309 4 13.4376 29.9798 6.82214 
27385 321 4 13.8798 29.768 6.74905 
27154 309 4 14.3791 29.7573 6.56905 
27386 321 4 14.7685 30.0422 6.38137 
27153 309 4 14.0312 30.6852 6.43473 
27381 321 4 14.0267 30.7098 6.44638 
27155 309 4 14.9727 30.4627 6.18164 
27161 309 4 15.5201 29.3569 6.29758 
27396 321 4 15.5102 29.3746 6.31636 
27391 321 4 12.1441 31.164 6.946 
27168 309 4 12.1481 31.1302 6.94092 
27383 321 4 13.2849 31.3773 6.51139 
27167 309 4 12.5422 32.0136 6.57189 
27390 321 4 12.5432 32.0449 6.5764 
27389 321 4 13.3398 32.568 6.17196 
27166 309 4 13.3354 32.541 6.16611 
27157 309 4 13.6833 31.6131 6.30042 
27382 321 4 14.1736 31.6515 6.14372 
27151 308 4 16.1246 31.6625 27.3816 
27140 308 4 15.2663 31.6197 26.8701 
27150 308 4 16.2766 32.2632 26.5521 
27145 308 4 12.6914 31.4911 25.3358 
27146 308 4 13.3034 32.1147 24.7805 
27138 308 4 14.3097 32.0855 25.5033 
27147 308 4 14.2114 32.5942 24.648 
27148 308 4 15.172 32.8011 24.9739 
27137 308 4 13.5497 31.534 25.8473 
27149 308 4 15.9279 32.6799 25.6709 
27143 308 4 12.888 30.4737 27.0465 
27144 308 4 12.5393 30.8904 26.1653 
27136 308 4 13.648 31.0253 26.7026 
27135 308 4 14.5063 31.0681 27.2141 
27139 308 4 15.168 32.1284 26.0148 
27134 308 4 14.408 31.5768 26.3587 
27141 308 4 14.6046 30.5594 28.0694 
27152 308 4 15.5126 31.0389 27.937 
27142 308 4 13.6439 30.3525 27.7435 
27099 306 4 19.4613 16.5243 10.3717 
27096 306 4 20.347 16.7783 9.98288 
27105 306 4 19.5148 15.0216 9.51185 
27114 306 4 21.9118 16.3508 8.81299 
27097 306 4 20.8165 16.154 9.35854 
27104 306 4 20.4088 15.0432 8.99001 
27103 306 4 21.2861 15.5297 8.73421 
27106 306 4 18.8439 15.4708 10.1599 
27098 306 4 19.9309 15.9 9.74736 
27107 306 4 18.5757 16.2703 10.7605 
27109 306 4 19.4078 18.027 11.2315 
27113 306 4 22.1182 17.2864 9.20524 
27108 306 4 18.7821 17.2059 11.1528 
27100 306 4 19.8774 17.4027 10.6072 
27110 306 4 20.2851 18.5135 10.9757 
27102 306 4 21.2326 17.0324 9.59406 
27101 306 4 20.763 17.6567 10.2184 
27111 306 4 21.1791 18.5351 10.4539 
27112 306 4 21.85 18.0859 9.80585 
27405 322 4 22.617 2.19951 23.8287 
27346 319 4 22.6177 2.17821 23.8398 
27354 319 4 22.5051 1.53397 23.0832 
27415 322 4 22.5095 1.57224 23.0573 
27414 322 4 22.4427 0.974538 23.9 
27353 319 4 22.4598 0.952959 23.9389 
27416 322 4 22.6339 2.50609 22.628 
27355 319 4 22.6107 2.46023 22.6329 
27356 319 4 22.7484 3.48355 22.7087 
27406 322 4 22.7536 3.17632 23.6636 
27347 319 4 22.7393 3.153 23.6525 
27417 322 4 22.7826 3.52587 22.727 
27357 319 4 22.8812 4.32973 23.2903 
27418 322 4 22.9157 4.35833 23.328 
27358 319 4 22.9736 4.77204 24.2218 
27413 322 4 22.4514 0.873148 24.9303 
27352 319 4 22.4869 0.87288 24.9708 
27345 319 4 22.6086 1.84767 24.7835 
27404 322 4 22.588 1.84996 24.7652 
27351 319 4 22.5793 1.31519 25.9023 
27412 322 4 22.5333 1.29523 25.8721 
27348 319 4 22.8519 3.79725 24.409 
27401 322 4 22.8611 3.80359 24.435 
27344 319 4 22.7212 2.49192 25.5401 
27403 322 4 22.6955 2.47723 25.5366 
27343 319 4 22.7303 2.82246 24.5963 
27349 319 4 22.8429 3.4667 25.3528 
27400 322 4 22.7245 2.82678 24.6001 
27402 322 4 22.8321 3.45405 25.3715 
27407 322 4 22.9976 4.78041 24.2698 
27359 319 4 23.0008 4.69196 25.2536 
27408 322 4 23.0064 4.67902 25.3001 
27350 319 4 22.7121 2.16137 26.4839 
27411 322 4 22.6665 2.12769 26.4731 
27360 319 4 22.9555 4.11095 26.1094 
27409 322 4 22.9396 4.08132 26.1429 
27410 322 4 22.8152 3.14747 26.5722 
27361 319 4 22.8498 3.18469 26.5597 
27469 325 4 24.3775 7.21456 22.8582 
27053 303 4 24.391 7.20749 22.86 
27468 325 4 25.2989 6.7552 22.9673 
27052 303 4 25.3135 6.74814 22.9589 