LAMMPS (3 Mar 2020)
OMP_NUM_THREADS environment is not set. Defaulting to 1 thread. (src/comm.cpp:94)
  using 1 OpenMP thread(s) per MPI task
Reading data file ...
  orthogonal box = (0 0 0) to (33.79 33.79 33.79)
  6 by 6 by 6 MPI processor grid
  reading atoms ...
  27475 atoms
  scanning bonds ...
  1 = max bonds/atom
  reading bonds ...
  8700 bonds
Finding 1-2 1-3 1-4 neighbors ...
  special bond factors lj:   0          0          0         
  special bond factors coul: 0          0          0         
  2 = max # of 1-2 neighbors
  2 = max # of 1-3 neighbors
  4 = max # of 1-4 neighbors
  6 = max # of special neighbors
  special bonds CPU = 2.47522 secs
  read_data CPU = 2.62974 secs
9000 atoms in group polyA
9000 atoms in group counterions
9000 atoms in group chain
475 atoms in group filler
7100 atoms in group water
1900 atoms in group salt
27000 atoms in group exc
Finding 1-2 1-3 1-4 neighbors ...
  special bond factors lj:   0          1          1         
  special bond factors coul: 0          1          1         
  2 = max # of 1-2 neighbors
  6 = max # of special neighbors
  special bonds CPU = 0.0216372 secs
25 rigid bodies with 475 atoms
Neighbor list info ...
  update every 1 steps, delay 0 steps, check yes
  max neighbors/atom: 2000, page size: 100000
  master list distance cutoff = 1.7
  ghost atom cutoff = 1.7
  binsize = 0.85, bins = 40 40 40
  1 neighbor lists, perpetual/occasional/extra = 1 0 0
  (1) pair soft, perpetual
      attributes: half, newton on
      pair build: half/bin/newton
      stencil: half/bin/3d/newton
      bin: standard
Setting up Verlet run ...
  Unit style    : lj
  Current step  : 0
  Time step     : 0.005
WARNING: Communication cutoff 1.7 is shorter than a bond length based estimate of 1.755. This may lead to errors. (src/comm.cpp:686)
Per MPI rank memory allocation (min/avg/max) = 13.01 | 14.27 | 15.13 Mbytes
Step Temp Press TotEng Volume 
       0    0.7991136    5.0082327    17.156512    38580.209 
   10000    0.8051457    11.226442    12.186032    38580.209 
   20000   0.80137997    12.637337    12.503675    38580.209 
   30000   0.79551504    14.008765    12.831654    38580.209 
   40000   0.80361581     15.40211    13.137449    38580.209 
   50000   0.79933284    16.845016    13.436818    38580.209 
   60000    0.8005385    18.201625    13.736215    38580.209 
   70000   0.79795226    19.565916    14.044957    38580.209 
   80000   0.79861718    20.979403    14.329994    38580.209 
   90000   0.80206828    22.363342    14.625884    38580.209 
  100000    0.8019945    23.737448    14.932535    38580.209 
  110000   0.80186541    25.112227    15.236909    38580.209 
  120000   0.80068847     26.44714    15.555265    38580.209 
  130000   0.80484357    27.848623       15.886    38580.209 
  140000   0.79662585    29.225349    16.196001    38580.209 
  150000   0.79551531    30.534588    16.526877    38580.209 
  160000    0.7961967    31.952189    16.859097    38580.209 
  170000   0.80397933    33.291147    17.213952    38580.209 
  180000   0.79834158    34.675567    17.522157    38580.209 
  190000   0.79583611    36.001435    17.863457    38580.209 
  200000   0.79530591    37.368167    18.189865    38580.209 
  210000   0.80021505     38.67733    18.540151    38580.209 
  220000   0.80234025    40.089186    18.858878    38580.209 
  230000   0.80391689     41.41716    19.212067    38580.209 
  240000   0.80057685    42.780968    19.537716    38580.209 
  250000   0.80317042    44.113492    19.875683    38580.209 
  260000   0.80355374    45.411668    20.210997    38580.209 
  270000   0.80231492    46.826777     20.54998    38580.209 
  280000   0.80102614    48.111112    20.879388    38580.209 
  290000   0.80281176     49.49832    21.209434    38580.209 
  300000   0.80270211    50.824253    21.545187    38580.209 
  310000   0.79585126    52.147277    21.875764    38580.209 
  320000   0.79590802    53.454607    22.212226    38580.209 
  330000   0.80053476    54.819338    22.549106    38580.209 
  340000   0.78966583    56.105993    22.877411    38580.209 
  350000    0.7952371     57.49211    23.209019    38580.209 
  360000    0.7942856    58.781517    23.547533    38580.209 
  370000   0.79593091    60.095091    23.878638    38580.209 
  380000    0.7997449    61.507758    24.221396    38580.209 
  390000   0.80113875    62.824787    24.550064    38580.209 
  400000   0.79879898    64.077459    24.895631    38580.209 
  410000   0.79734239    65.443584     25.21347    38580.209 
  420000   0.79707224    66.699632    25.551093    38580.209 
  430000   0.79217854    68.091324    25.876585    38580.209 
  440000   0.79811487    69.397565    26.210475    38580.209 
  450000   0.79552499    70.690647    26.539279    38580.209 
  460000   0.79613182    72.053956     26.87143    38580.209 
  470000   0.79952096    73.402126    27.211066    38580.209 
  480000   0.79819831    74.673015    27.539961    38580.209 
  490000   0.79773613    75.965813    27.881788    38580.209 
  500000   0.80220105    77.247783    28.202986    38580.209 
  510000   0.79993973    78.632557    28.532355    38580.209 
  520000   0.80240382    79.916038    28.869881    38580.209 
  530000   0.80304955      81.2581    29.197631    38580.209 
  540000   0.79598194    82.503187    29.518152    38580.209 
  550000    0.8027084    83.910383    29.851876    38580.209 
  560000   0.80089658    85.144162    30.182201    38580.209 
  570000   0.80488362    86.473103    30.516901    38580.209 
  580000   0.79627702    87.804488    30.849221    38580.209 
  590000    0.7954823    89.113099    31.148302    38580.209 
  600000   0.79719887    90.370368    31.491764    38580.209 
  610000   0.79781201    91.729577    31.812619    38580.209 
  620000   0.79256043    93.052826     32.13642    38580.209 
  630000   0.79661767     94.26137    32.470021    38580.209 
  640000   0.80169927    95.591691    32.811336    38580.209 
  650000   0.79884442    96.940352    33.140297    38580.209 
  660000   0.79609483    98.224299    33.458139    38580.209 
  670000   0.80244891    99.461585    33.786393    38580.209 
  680000   0.79609691    100.75497    34.109344    38580.209 
  690000   0.81201061     102.1427    34.471346    38580.209 
  700000   0.79423584    103.32846    34.767204    38580.209 
  710000    0.7954397     104.6768    35.093055    38580.209 
  720000   0.79861997    106.02915    35.416491    38580.209 
  730000   0.79836935    107.31834    35.740011    38580.209 
  740000    0.8034272     108.5738     36.08068    38580.209 
  750000   0.79436094    109.87279    36.389729    38580.209 
  760000   0.79928055    111.20526    36.733073    38580.209 
  770000   0.80716416    112.45946    37.069467    38580.209 
  780000   0.80222388    113.72905    37.370603    38580.209 
  790000   0.79581593    115.02801    37.692252    38580.209 
  800000   0.80467582    116.29385    38.026928    38580.209 
  810000   0.80202439    117.59174     38.35976    38580.209 
  820000   0.79908379    118.88378    38.673194    38580.209 
  830000   0.79969175    120.22861       38.995    38580.209 
  840000   0.79371081     121.4855     39.32229    38580.209 
  850000   0.80126865    122.75092    39.652024    38580.209 
  860000   0.80102106    124.00152     39.96801    38580.209 
  870000   0.80343015    125.36477     40.31395    38580.209 
  880000   0.79656786    126.63588    40.608858    38580.209 
  890000   0.79884864    127.90288    40.946468    38580.209 
  900000   0.78712352    129.14744    41.235779    38580.209 
  910000   0.80062721    130.56125    41.579812    38580.209 
  920000   0.79580476    131.72522    41.906093    38580.209 
  930000   0.79896469    133.06179    42.231402    38580.209 
  940000   0.80165852    134.24904    42.558978    38580.209 
  950000   0.80255803    135.55483     42.87748    38580.209 
  960000   0.79635658    136.80518    43.195858    38580.209 
  970000   0.80534631    138.11402    43.526793    38580.209 
  980000   0.79777256    139.34323    43.845847    38580.209 
  990000   0.80558185    140.65468    44.172395    38580.209 
 1000000   0.80153466      142.046      44.4889    38580.209 
 1010000    0.7963288    143.18921    44.808463    38580.209 
 1020000   0.80541863    144.51715    45.145256    38580.209 
 1030000   0.80276059    145.81132    45.460904    38580.209 
 1040000   0.80318447    147.08879    45.787176    38580.209 
 1050000   0.79804366    148.36483    46.104885    38580.209 
 1060000   0.79587974    149.62181    46.426898    38580.209 
 1070000   0.80707976    150.91898    46.750654    38580.209 
 1080000   0.80290511    152.13034    47.068529    38580.209 
 1090000   0.79836852    153.42202    47.386048    38580.209 
 1100000   0.79590578    154.61116    47.699873    38580.209 
 1110000   0.79745232    155.96662    48.019488    38580.209 
 1120000    0.8060668    157.26025    48.353486    38580.209 
 1130000   0.79829921    158.41907    48.662645    38580.209 
 1140000   0.80341741    159.78584    48.997741    38580.209 
 1150000   0.80607677    161.00542    49.315086    38580.209 
 1160000   0.79786407     162.3608    49.631317    38580.209 
 1170000   0.80808002    163.62673    49.953711    38580.209 
 1180000   0.79162957    164.91094    50.259528    38580.209 
 1190000   0.80414753    166.09399    50.585252    38580.209 
 1200000   0.79693217    167.38226    50.910228    38580.209 
 1210000   0.80324071    168.62542    51.229913    38580.209 
 1220000   0.79903867    169.92014    51.548574    38580.209 
 1230000   0.79425583    171.24575    51.857098    38580.209 
 1240000   0.80058299    172.44845    52.194239    38580.209 
 1250000   0.80424403    173.72963    52.511196    38580.209 
 1260000   0.80109717    174.99322    52.812664    38580.209 
 1270000   0.79945902    176.22869    53.140007    38580.209 
 1280000   0.79799307    177.50824    53.447068    38580.209 
 1290000   0.79785397    178.85271    53.761987    38580.209 
 1300000   0.79667764    179.93172    54.083016    38580.209 
 1310000   0.79916915    181.36479    54.407552    38580.209 
 1320000   0.79789784    182.55086    54.710293    38580.209 
 1330000   0.80573277    183.77498    55.047121    38580.209 
 1340000   0.79926493    185.17146    55.355255    38580.209 
 1350000   0.79433516    186.38144    55.664925    38580.209 
 1360000   0.79921692    187.66163    55.988734    38580.209 
 1370000   0.80084005    188.74009    56.303889    38580.209 
 1380000   0.79592148    190.04718    56.620375    38580.209 
 1390000   0.79937438    191.36348    56.947543    38580.209 
 1400000   0.79924508    192.62585    57.249744    38580.209 
 1410000   0.79775065     193.8438    57.585604    38580.209 
 1420000   0.80312799    195.13222    57.903127    38580.209 
 1430000   0.79985209    196.47435    58.211173    38580.209 
 1440000   0.80095554    197.67605    58.531373    38580.209 
 1450000    0.8018603    198.94482    58.864124    38580.209 
 1460000   0.79913794    200.07549    59.168577    38580.209 
 1470000   0.80119902    201.36437    59.493717    38580.209 
 1480000   0.79440182    202.67701    59.782919    38580.209 
 1490000   0.79631356    203.89921     60.10648    38580.209 
 1500000   0.79515093    205.22344    60.423839    38580.209 
 1510000   0.79908457    206.37462    60.751302    38580.209 
 1520000   0.80211885    207.67435    61.062272    38580.209 
 1530000    0.7993256    208.95831    61.384298    38580.209 
 1540000   0.79994473     210.1885    61.697505    38580.209 
 1550000   0.80347546    211.38655    62.029338    38580.209 
 1560000   0.80659232    212.64198    62.332879    38580.209 
 1570000   0.80325225    213.85381    62.652749    38580.209 
 1580000   0.80178326    215.22163    62.960246    38580.209 
 1590000   0.80082812    216.43547    63.263768    38580.209 
 1600000   0.80058794    217.68312    63.591239    38580.209 
 1610000    0.7979844    219.01602    63.901983    38580.209 
 1620000   0.79963103    220.22028    64.223316    38580.209 
 1630000   0.80182821    221.37808    64.542459    38580.209 
 1640000   0.80148309    222.61018    64.848954    38580.209 
 1650000   0.79746134    223.95399    65.148584    38580.209 
 1660000   0.80035948    225.12941    65.473264    38580.209 
 1670000   0.79489451    226.39447    65.786393    38580.209 
 1680000   0.79867901    227.72124    66.095277    38580.209 
 1690000   0.79435519    228.89891     66.41254    38580.209 
 1700000   0.79697018    230.19813    66.728577    38580.209 
 1710000    0.8023529     231.4569    67.056429    38580.209 
 1720000   0.79006864    232.65335    67.337366    38580.209 
 1730000   0.80072865    233.93721     67.68622    38580.209 
 1740000   0.80259886    235.28232    68.001708    38580.209 
 1750000   0.79719685    236.40795    68.303716    38580.209 
 1760000   0.79287082    237.66196    68.622855    38580.209 
 1770000   0.80193307    238.81244    68.945958    38580.209 
 1780000   0.80909424    240.13896    69.267442    38580.209 
 1790000   0.80098314    241.29248    69.564466    38580.209 
 1800000   0.80657061    242.68114    69.885575    38580.209 
 1810000   0.79654066    243.86678    70.192293    38580.209 
 1820000    0.7977974    245.02827    70.504711    38580.209 
 1830000   0.80318978    246.27456    70.817799    38580.209 
 1840000   0.79752949     247.6692    71.124199    38580.209 
 1850000   0.80116047    248.80439    71.435472    38580.209 
 1860000    0.8017163    250.10868    71.753567    38580.209 
 1870000   0.80353689    251.27954    72.080253    38580.209 
 1880000   0.79788714    252.54364    72.373506    38580.209 
 1890000   0.79820278    253.83823    72.688897    38580.209 
 1900000   0.80276291    254.95029    73.008037    38580.209 
 1910000   0.80365123    256.25672    73.318805    38580.209 
 1920000   0.80336699    257.42244    73.636582    38580.209 
 1930000   0.80054201     258.6922    73.942949    38580.209 
 1940000   0.79578696    260.04791    74.257498    38580.209 
 1950000    0.8045078     261.2381    74.575258    38580.209 
 1960000   0.80160594    262.49026    74.872317    38580.209 
 1970000   0.79530578    263.69473     75.18167    38580.209 
 1980000   0.80294059     264.9872    75.511629    38580.209 
 1990000   0.79683355     266.3117    75.806489    38580.209 
 2000000   0.79497332    267.43696      76.1137    38580.209 
Loop time of 982.344 on 216 procs for 2000000 steps with 27475 atoms

Performance: 879528.614 tau/day, 2035.946 timesteps/s
99.9% CPU use with 216 MPI tasks x 1 OpenMP threads

MPI task timing breakdown:
Section |  min time  |  avg time  |  max time  |%varavg| %total
---------------------------------------------------------------
Pair    | 124.7      | 131.1      | 139.54     |  22.6 | 13.35
Bond    | 0.76311    | 2.8487     | 5.345      |  52.8 |  0.29
Neigh   | 68.194     | 74.535     | 79.683     |  25.4 |  7.59
Comm    | 259.38     | 317.13     | 351.36     |  94.0 | 32.28
Output  | 0.70681    | 0.70998    | 0.72558    |   0.2 |  0.07
Modify  | 284.73     | 323.67     | 386.1      | 104.8 | 32.95
Other   |            | 132.4      |            |       | 13.47

Nlocal:    127.199 ave 142 max 115 min
Histogram: 5 16 28 29 55 41 19 16 5 2
Nghost:    396.676 ave 422 max 370 min
Histogram: 2 10 9 31 35 65 37 16 8 3
Neighs:    862.167 ave 1001 max 768 min
Histogram: 10 19 33 46 50 25 20 9 3 1

Total # of neighbors = 186228
Ave neighs/atom = 6.77809
Ave special neighs/atom = 0.633303
Neighbor list builds = 237327
Dangerous builds = 0
System init for write_data ...
Neighbor list info ...
  update every 1 steps, delay 0 steps, check yes
  max neighbors/atom: 2000, page size: 100000
  master list distance cutoff = 2.8
  ghost atom cutoff = 2.8
  binsize = 1.4, bins = 25 25 25
  1 neighbor lists, perpetual/occasional/extra = 1 0 0
  (1) pair lj/cut, perpetual
      attributes: half, newton on
      pair build: half/bin/newton
      stencil: half/bin/3d/newton
      bin: standard
Setting up Verlet run ...
  Unit style    : lj
  Current step  : 2000000
  Time step     : 0.005
Per MPI rank memory allocation (min/avg/max) = 13.16 | 14.37 | 15.15 Mbytes
Step Temp Press TotEng Volume 
 2000000   0.79497332      10.2538    5.6193571    38580.209 
 2010000   0.80147323 -0.043694217    2.6835173    34331.991 
 2020000   0.79627839 -0.040943553    2.6766533     34320.58 
 2030000   0.79763232 -0.045930606     2.682613    34361.137 
 2040000   0.80041125 -0.041110114      2.66828    34259.127 
 2050000   0.80219905 -0.070194026    2.6517931     34122.03 
 2060000    0.7940273  -0.11523794    2.6362534    34134.075 
 2070000   0.80850078  -0.10474238    2.6631206    34201.183 
 2080000   0.80273431  0.011800597    2.6648869    34188.783 
 2090000   0.79741494 -0.022001902    2.6419391    34048.494 
 2100000   0.80011551 -0.029568389    2.6550915    34148.663 
 2110000   0.80055926   0.12007641    2.6644656    34108.525 
 2120000   0.79948328 -0.0069552158     2.649407    34112.684 
 2130000   0.79944814 -0.0094706331    2.6560182    34174.017 
 2140000   0.79942305 -0.0054232208    2.6350826    34070.618 
 2150000   0.80037363  0.041177626    2.6560515    34092.742 
 2160000   0.80004274 -0.010394662    2.6577987     34117.17 
 2170000    0.8023682 -0.012028843    2.6514229    34098.337 
 2180000   0.79997704 -0.017541553     2.659324    34153.871 
 2190000   0.79776061 -0.011410673    2.6477398    34064.819 
 2200000   0.80384518   0.13737824    2.6557436    34036.879 
 2210000   0.79722766  0.044856174    2.6322636    34002.479 
 2220000   0.80053449 -0.043066313    2.6469669    34112.097 
 2230000   0.80181549 -0.014734791    2.6462423    34068.011 
 2240000   0.80324248 -0.0036050593    2.6579989    34066.206 
 2250000   0.80735594 -0.048479886    2.6518729    34057.104 
 2260000   0.80087754 -0.0094582024     2.658225    34193.954 
 2270000   0.80520409 -0.020340269    2.6444245    34063.768 
 2280000   0.80585847 -0.013300783     2.644982    34050.066 
 2290000   0.80470084 -0.00020320034    2.6631448     34115.86 
 2300000   0.79785018 -0.016039375    2.6417177    34101.902 
 2310000   0.80391942 -0.010945988    2.6321637      33997.4 
 2320000   0.79578195 -0.0018563017    2.6451346    34083.609 
 2330000    0.8086231 -0.024364004    2.6491725    34037.519 
 2340000   0.80428084 -0.013165475     2.645209    34041.012 
 2350000   0.79603734 -0.013840173    2.6437603    34085.738 
 2360000   0.80201695  0.011900427    2.6515701    34092.257 
 2370000    0.7970372  0.019758629    2.6455529    34108.796 
 2380000   0.79521336  -0.16598389    2.6305369    34125.013 
 2390000   0.79867285 -0.025206064    2.6357802    34059.034 
 2400000   0.79746505 -0.041204494    2.6630369    34236.298 
 2410000   0.79603802 -0.019396477     2.630266    34041.289 
 2420000   0.80245121 -0.081333281    2.6569292    34135.968 
 2430000   0.80589825 -0.0080148452    2.6706236    34184.128 
 2440000   0.80075325 -0.0067436386    2.6558906    34107.831 
 2450000   0.79868927 -0.069143463    2.6453799    34094.461 
 2460000   0.80138055 -0.070720951    2.6524241    34149.218 
 2470000   0.79842874 -0.011822033    2.6510204    34066.949 
 2480000      0.79986 -3.4375783e-05    2.6512566    34084.234 
 2490000   0.79732847  0.016752576    2.6386572    34045.805 
 2500000   0.79847016  0.031359425    2.6406084    34028.855 
 2510000    0.8003528 -0.002700329    2.6396999    34022.305 
 2520000   0.79894996 -0.015128316    2.6307227    33964.049 
 2530000   0.79798048 -0.087734273    2.6297778    34069.436 
 2540000   0.79602353 -0.055060897    2.6288544    34038.715 
 2550000   0.80076111  0.016187647    2.6452654    34051.225 
 2560000   0.80283904 -0.0097771271    2.6489852     34096.88 
 2570000   0.79665871  0.039616815    2.6253307    33942.055 
 2580000   0.80168494  -0.11298211    2.6357974    34003.209 
 2590000   0.80525345 -0.0056888731    2.6344434    33960.613 
 2600000   0.80293133 -0.018275962    2.6512991    34075.802 
 2610000   0.79398786 -0.044424325    2.6133259    33958.642 
 2620000   0.80397528 -0.014977722    2.6585665    34113.443 
 2630000   0.79405735 -0.070941556    2.6318694    34082.579 
 2640000   0.79718305 -0.0061299243    2.6270159    33993.245 
 2650000   0.80538437   -0.0488926    2.6512749    34054.411 
 2660000   0.80586571 -0.052892171    2.6397798    34038.773 
 2670000   0.79653538 -0.028687667    2.6197997    33956.958 
 2680000   0.79133617  0.019757807    2.6064962     33909.37 
 2690000   0.79663933  0.011169891    2.6261245    33971.732 
 2700000   0.79896718 -0.009632894    2.6286707    33961.715 
 2710000    0.7886991 -0.047002156    2.6171127    33980.623 
 2720000   0.79759746  0.015474415    2.6328018    34009.324 
 2730000   0.80383223  0.035547095    2.6415796    33966.077 
 2740000   0.80110899  0.005112929    2.6346386    33996.738 
 2750000    0.8002112 -0.015617733    2.6214016    33999.515 
 2760000   0.80317892  0.072145599    2.6539051     34029.57 
 2770000    0.7975057 -0.0021750929    2.6327853    34010.706 
 2780000   0.80524448   0.12240591    2.6468744    33939.667 
 2790000   0.79918732 0.0083613666    2.6249168    33946.822 
 2800000   0.79551121  -0.08612804    2.6226803    34006.753 
 2810000   0.79907429 -0.032933201    2.6241352     33962.23 
 2820000   0.79717457 -0.039866282    2.6255261    34013.191 
 2830000   0.79607141 -0.016588607    2.6105379    33933.532 
 2840000   0.80076822  0.026130981    2.6336965    33947.191 
 2850000   0.80155679  0.060627118    2.6227434    33914.269 
 2860000   0.79024674 0.0077750308    2.6069387    33938.768 
 2870000   0.80672937 -0.0014467562    2.6417306    34002.845 
 2880000   0.80238005 -0.013245102    2.6516715    34103.318 
 2890000    0.8031374  -0.16474982    2.6432481    34115.991 
 2900000   0.79883249 -0.045368212    2.6301114    34042.937 
 2910000   0.80644343 -0.012945734    2.6488438    34058.091 
 2920000   0.79509381  -0.06984898    2.6243035    34002.559 
 2930000   0.80855075 -0.012679035    2.6462978    33999.738 
 2940000   0.79922914  0.041055893    2.6109047    33845.803 
 2950000   0.80666048 -0.014033523    2.6457095    34011.824 
 2960000   0.80975886 -0.018415683    2.6465182    34024.064 
 2970000   0.80255995 -0.006445117    2.6444271    34059.296 
 2980000    0.7973304  -0.02173571     2.611611    33909.347 
 2990000   0.80603665 -0.006017617    2.6518258    34068.988 
 3000000   0.79938295 -0.021454009    2.6572785    34137.336 
 3010000   0.79605973  0.028309959    2.6369418    34016.372 
 3020000   0.80377516 -0.018830757    2.6453508     34002.42 
 3030000   0.79350322 0.0057755351    2.6364884    34076.087 
 3040000    0.7962958  -0.03139257    2.6159612    33944.487 
 3050000   0.80069002 0.0034327949    2.6445495    34076.369 
 3060000   0.79819416 -0.0087150728    2.6295453     33993.91 
 3070000   0.79844963 -0.047830905    2.6329898    33992.927 
 3080000   0.79192443 -0.011751804    2.6054748    33929.701 
 3090000   0.79877133 -0.048214829    2.6205836    34007.163 
 3100000   0.80635509 -0.0060680898    2.6515819    34052.967 
 3110000   0.80160705 -0.0098116875    2.6362776    34052.799 
 3120000   0.80218514  0.076074648    2.6211532    33861.877 
 3130000   0.79955791 -0.023402855    2.6228151     33969.22 
 3140000   0.79581367 -0.043669459    2.6361111    34064.656 
 3150000   0.80249989 -0.023780304    2.6205639    33897.862 
 3160000   0.79514283 -0.041686841    2.6250127    33980.851 
 3170000   0.80468383 -0.045862946    2.6139022    33901.929 
 3180000   0.80725915  0.028214413    2.6262372    33898.441 
 3190000   0.79695313 -0.017056607     2.622682    33943.701 
 3200000   0.80264563 -0.0054165955    2.6372299    33973.831 
 3210000   0.79456331 -0.041437391    2.6226663    33979.062 
 3220000   0.79216963  -0.03502095     2.627688    34059.333 
 3230000   0.80247171 -0.024541495    2.6280105    33947.264 
 3240000   0.79559165 -0.018588341    2.6209768     33951.51 
 3250000   0.80012442 -0.025457733    2.6184158    33898.156 
 3260000   0.80034549 -0.017913372    2.6345791    33964.503 
 3270000     0.798065 -0.0028114579    2.6212897    33916.356 
 3280000   0.79652689  -0.11563764    2.6198931    33982.995 
 3290000   0.79783952 -0.037217091    2.6202007    33951.798 
 3300000   0.79876631 -0.010658813    2.6282386    33939.354 
 3310000   0.80603693  0.016796179    2.6371774    33940.366 
 3320000   0.80264748  -0.06393704    2.6279342    33958.854 
 3330000   0.80281446 -0.0083765964    2.6368841    33962.256 
 3340000   0.79916272 -0.035873528    2.6466575    34097.176 
 3350000     0.795384  0.067361414    2.6013878    33836.242 
 3360000   0.80450978 -0.011013152    2.6383252    34022.429 
 3370000   0.80857935 -0.010210178    2.6245915    33881.767 
 3380000   0.79771597 -0.012642044    2.6366054    34040.734 
 3390000   0.79581041 -0.080098375    2.6273872     34048.63 
 3400000   0.79516273 -0.010437098    2.6136534    33921.928 
 3410000   0.79985081  -0.12794771    2.6457418    34127.389 
 3420000   0.80266208 -0.0058999334    2.6131589    33872.677 
 3430000   0.79755494  0.010149418    2.6149935    33919.187 
 3440000    0.7988106  0.019055558      2.62378     33969.14 
 3450000   0.80560967 -0.0076046624    2.6345208    33987.281 
 3460000   0.79978018 -0.062025341    2.6255299    33995.661 
 3470000   0.80588359 -0.005270979    2.6137727    33837.549 
 3480000   0.79661324 -0.010308937     2.631271    33945.191 
 3490000   0.79488583 -0.040150515    2.6025969    33913.949 
 3500000   0.80350393 -0.00049460445    2.6252467    33916.906 
 3510000   0.80723456  0.064377289     2.637303    33894.601 
 3520000   0.79691184 -0.025336986    2.6370458    34029.809 
 3530000   0.80062082 -0.029009481    2.6218119    33944.531 
 3540000   0.80183787   0.02920383    2.6392434    33998.012 
 3550000   0.80092129 -0.048214423    2.6325711    33998.148 
 3560000   0.79946299 -0.015069919    2.6345776    33993.877 
 3570000   0.80315904 0.0094270577     2.631552    33970.594 
 3580000   0.79258273 -0.013146799    2.6227055    33996.026 
 3590000   0.80337694 0.00023726075    2.6276511    33946.164 
 3600000   0.80455984 -0.023579881    2.6356925    33989.685 
 3610000   0.80713506  0.043900696    2.6311366    33910.822 
 3620000   0.80466005 -0.023651935    2.6403386    33996.145 
 3630000   0.79738948  0.062733897    2.6204902    33933.727 
 3640000   0.79491633 -0.039784085    2.6201274    33993.651 
 3650000   0.79252358 -0.0083067377    2.6114048    33926.729 
 3660000   0.79750683 -0.010061059    2.6172633    33934.771 
 3670000   0.80288566 0.0001124198    2.6188602    33906.528 
 3680000   0.80694427   0.10950817    2.6378487    33894.037 
 3690000    0.7999932 -0.0049924459    2.6212067    33916.699 
 3700000   0.80088881  0.040038513    2.6232034    33943.769 
 3710000   0.79713245 -0.018441616    2.6085265    33885.184 
 3720000   0.80096423 -0.011964728    2.6135236    33886.046 
 3730000   0.79350519 -0.053013008    2.6151069    34038.684 
 3740000   0.80299548 -0.038760949    2.6313966    34039.784 
 3750000   0.79245521 0.0010585844    2.6221911     33976.12 
 3760000   0.79935886 -0.016654313    2.6179153    33903.055 
 3770000   0.79651371 -0.0084092275    2.6049821     33862.39 
 3780000   0.80255948 -0.0093051259    2.6075652    33841.599 
 3790000   0.79770145 -0.084580609    2.6253105     34033.15 
 3800000   0.80413231 -0.077895223    2.6431643    34054.139 
 3810000   0.80490496 -0.021466423    2.6248302    33921.731 
 3820000   0.80032476   0.14525036    2.6134894    33812.838 
 3830000   0.79991894  -0.02705108    2.6237991    33988.952 
 3840000   0.80759169  -0.14618314    2.6294429    33990.033 
 3850000   0.80341916 0.0079071347    2.6359858    33963.511 
 3860000   0.79672074 -0.027021251    2.5937984    33828.158 
 3870000    0.7991299  0.067337185    2.6394077    33956.134 
 3880000   0.80021545 -0.014649405    2.6226204    33980.371 
 3890000   0.80339016 0.0072958807    2.6283762    33931.999 
 3900000   0.79979525 -0.002652518    2.6408589    34052.902 
 3910000   0.80426003 -0.019519317    2.6520739    34080.741 
 3920000   0.79637413 -0.016215759     2.612838    33927.866 
 3930000   0.80144471 -0.041757801    2.6329263    34019.236 
 3940000   0.80879105 0.0034765135    2.6288896    33940.029 
 3950000   0.80451738 -0.013873682    2.6271415    33930.282 
 3960000   0.80008304 -0.028093205    2.6115159    33865.097 
 3970000    0.7978712   0.13871123    2.6341097    33931.667 
 3980000   0.80642683 -0.020748962    2.6264893    33926.892 
 3990000   0.80308657   0.07018884    2.6295489    33913.385 
 4000000   0.80421658 -0.013558232     2.633477    33974.615 
 4010000   0.79720592 -0.014803668    2.6230117    33988.211 
 4020000   0.79078323   0.11414086    2.6098387    33864.429 
 4030000   0.79891254  -0.02395761    2.6309014    33994.483 
 4040000   0.79254751  -0.02805976    2.6153943    33942.267 
 4050000   0.80158577 -0.026545209    2.6244707     33967.17 
 4060000   0.80059807 -0.075842431    2.6291603    34019.078 
 4070000   0.80162969  -0.02288554    2.6415974    34056.641 
 4080000   0.80489449 -0.0064880553    2.6361974     33965.75 
 4090000    0.8004793 -0.070387834    2.6306404    34015.816 
 4100000    0.8058355 -0.011079457    2.6169029    33898.887 
 4110000    0.8014512 -0.014711778    2.6224358    33919.254 
 4120000   0.79882121   0.14001154    2.6211587    33860.535 
 4130000   0.80401461 0.0008991082    2.6326425    33938.361 
 4140000   0.78899843 -0.009913073    2.6168865    34006.441 
 4150000    0.8029787  0.053958645     2.621841    33831.837 
 4160000   0.79847467 -0.0048581057    2.6393219    34036.735 
 4170000   0.80173596 -0.0045360422    2.6158694    33859.996 
 4180000   0.79784787 -0.012249353    2.6305233    34009.681 
 4190000    0.8020408 -0.013843877    2.6202922    33864.322 
 4200000   0.80659425 -0.012096938     2.629509    33945.701 
 4210000   0.79540546  0.054383808    2.6158865    33910.763 
 4220000    0.8059378  0.071927111    2.6326749    33887.543 
 4230000   0.79891215 -0.0053693491    2.6079503    33851.664 
 4240000   0.79690715 0.0062172522    2.6148842    33906.432 
 4250000   0.80203076 -0.065785998    2.6326946    34026.663 
 4260000   0.80235484 -0.012123269    2.6160805    33902.513 
 4270000   0.79055007  -0.04478168    2.6024304    33928.548 
 4280000   0.79155276  -0.01626522    2.6003153    33890.976 
 4290000   0.79949102 -0.081638108    2.6282016    34022.027 
 4300000   0.80716738 -0.025221112    2.6221376    33882.998 
 4310000   0.79845747 -0.010291386    2.6199559    33928.221 
 4320000   0.80373952  0.010712591    2.6337784     34006.95 
 4330000   0.80022944 -0.013845203     2.630097    33983.903 
 4340000    0.7955894    -0.033399    2.6071642    33903.773 
 4350000   0.80488312 0.00088167348    2.6257713    33901.486 
 4360000   0.79411549 -0.029033801    2.6218344    34009.403 
 4370000   0.80242271  0.014448059    2.6308658    33965.611 
 4380000   0.79903483 0.0092551303    2.6222822    33975.786 
 4390000   0.79573644 -0.088981445    2.6121685    33918.206 
 4400000   0.80703969 -0.055281542    2.6204102    33904.681 
 4410000   0.79960386 -0.095995821    2.6237446    33968.914 
 4420000   0.80530307 -0.009114682    2.6271468    33935.659 
 4430000   0.80096701 -0.050655111     2.625905    33976.821 
 4440000   0.79451244 -0.011959409    2.6187885    33980.582 
 4450000   0.79964474  0.050922693    2.6171637    33869.961 
 4460000   0.79509982 -0.015608762    2.6190595    33973.057 
 4470000   0.80717367 -0.077220517    2.6290701    33977.919 
 4480000   0.80205178 -0.011619375    2.6255009    33936.921 
 4490000   0.80414426 -0.0060276717    2.6210771    33910.321 
 4500000   0.79773971 -0.023538285    2.6183538     33939.67 
 4510000   0.79661176 -0.037244112    2.6162052    33966.335 
 4520000   0.80211855 -0.015582672    2.6148998    33886.409 
 4530000   0.79999582  0.071484346    2.6074762    33832.894 
 4540000   0.80021117  0.024401813    2.6126026    33848.241 
 4550000   0.80625871  -0.02894459    2.6361377    33962.102 
 4560000   0.79879737 -0.0058339738    2.6317194    33982.142 
 4570000   0.80501681 -0.064375564    2.6293555    34006.671 
 4580000   0.79970545 -0.035537397    2.6267864     33964.57 
 4590000   0.79985121 -0.020864151    2.6163374    33926.918 
 4600000   0.80766636 -0.016912183    2.6302225    33899.709 
 4610000   0.80291162  0.073346752    2.6123313     33847.35 
 4620000   0.79754328 -0.0071170216    2.6129446    33871.825 
 4630000   0.79815282 -0.017528899    2.6211065     33953.91 
 4640000   0.79296415 -0.010467697    2.6211108    33993.543 
 4650000   0.80588053  0.020262726    2.6370816    33985.434 
 4660000   0.79676155  0.032524141    2.6155802    33929.461 
 4670000   0.79803559  0.024524605    2.6216474    33941.297 
 4680000   0.81659769 -0.027428761    2.6433182    33934.367 
 4690000   0.79854797  0.014484481     2.617828    33884.716 
 4700000    0.7992233 -0.011413364    2.6202409    33922.706 
 4710000   0.80099988 -0.016141272    2.6146129    33917.328 
 4720000   0.80353901 -0.020741219      2.61954    33940.695 
 4730000   0.80131188 -0.016028057    2.6214623    33909.592 
 4740000   0.79975044  -0.02463209    2.6042977    33890.394 
 4750000   0.80384975  0.022154911    2.6316801    33932.149 
 4760000   0.79940245 -0.013708618    2.6245733    33923.351 
 4770000   0.80757073 -0.058362858    2.6363317    33973.364 
 4780000   0.79612855 -0.010666646    2.6143802    33893.192 
 4790000   0.79761866 -0.018868213    2.6216436     33953.39 
 4800000    0.7979851 -0.048472933    2.6070597    33876.731 
 4810000   0.80014917 -0.029622522    2.6306194    33985.923 
 4820000   0.80302159  0.014775629    2.6174379    33869.378 
 4830000   0.79304295   0.11444183    2.5905151    33754.176 
 4840000   0.80021102 -0.035117845     2.627046    33953.583 
 4850000   0.79710185 -0.020763234    2.6122353    33897.491 
 4860000    0.8002685 -0.011840887    2.6180964    33897.438 
 4870000   0.80502445  -0.01860346    2.6259963    33954.985 
 4880000   0.79508771 -0.0076024406    2.6087371    33915.052 
 4890000   0.80458796 -0.0079776265    2.6191578    33871.537 
 4900000   0.79674726 -0.014328284    2.6190079     33962.86 
 4910000   0.79685761 -0.011732055    2.6265687    33952.103 
 4920000   0.79864153  -0.01572048    2.6290997    33986.653 
 4930000   0.79575815  0.023854191    2.5902929    33797.909 
 4940000   0.80221857 -0.0092789308    2.6225094     33915.28 
 4950000   0.80311591 -0.018374204    2.6297113    33972.855 
 4960000   0.79350916 -0.040375676    2.6175791      33950.4 
 4970000   0.80149406  -0.02131331    2.6157107    33938.597 
 4980000   0.80809063 -0.0049097369    2.6483484    34038.088 
 4990000   0.80208828 0.0039041043    2.6182043    33886.136 
 5000000    0.8023494  -0.12008067    2.6265624    34049.551 
 5010000    0.8004643  -0.13765325    2.6215305    33991.089 
 5020000   0.79846567 -0.019723414    2.6155457    33906.339 
 5030000   0.80300931 -0.0072876914    2.6267591      33875.1 
 5040000    0.7969009  -0.12727653    2.6218037    34049.884 
 5050000   0.79892394 -0.016669396     2.632832    34011.822 
 5060000   0.80298701 -0.024697638    2.6417398    33995.283 
 5070000   0.79871074  -0.01240618    2.6066954    33895.113 
 5080000   0.80313754  0.099489485    2.6377568    33905.888 
 5090000   0.80044469 -0.038354377    2.6159551    33880.203 
 5100000   0.79458026 -0.0093436615    2.5945425    33812.879 
 5110000   0.80278793 -0.016946916    2.6370361    34000.087 
 5120000   0.80425761 -0.0077410208    2.6339715    33949.991 
 5130000   0.79752013 -0.031203146    2.6376204    34064.151 
 5140000   0.79734911 -0.087107738    2.6146011    33976.512 
 5150000   0.80159223 -0.040253303    2.6124243    33871.769 
 5160000   0.80115765 -0.070609141     2.612039    33933.802 
 5170000   0.80226057 0.0039591684    2.6319543    33980.398 
 5180000    0.8006087  -0.11354635    2.6090395    33922.589 
 5190000   0.80511082 -0.051941695    2.6349833    33979.595 
 5200000   0.80053897  0.081760484    2.6135601     33871.37 
 5210000   0.79988342 -0.0071735915    2.6372596    33988.564 
 5220000    0.8050567 -0.016918651    2.6405886    34019.283 
 5230000    0.7865927 -0.0096094637    2.6112612     34015.58 
 5240000   0.80186432 -0.015672739    2.6345029    34019.906 
 5250000   0.79338324 -0.017621626    2.6065691    33899.376 
 5260000   0.79877955 -0.012037955    2.6112567    33865.227 
 5270000   0.80194148 -0.017401358    2.6244104     33949.51 
 5280000   0.80528712 -0.017704605    2.6203702    33861.464 
 5290000   0.80391187 -0.030239013    2.6249211    33961.184 
 5300000   0.79038429 -0.033226262    2.6062229    33951.298 
 5310000   0.79879425   0.03913397    2.6158993    33912.816 
 5320000   0.80067236 -0.0098139121    2.6176408     33891.62 
 5330000   0.79807546 -0.0088831966    2.6264774    33951.113 
 5340000    0.7988343 -0.024019044     2.630466    33996.254 
 5350000   0.80044552 -0.0029229972    2.6186852    33933.727 
 5360000   0.79803902  -0.04410671    2.6286441    34014.148 
 5370000   0.79691288 -0.015105909    2.6099302    33931.372 
 5380000    0.8019543 -0.0043117733    2.5994909    33799.918 
 5390000   0.80059504 -0.018897638     2.609634    33875.626 
 5400000   0.79865043 -0.008464269    2.6274849    34034.243 
 5410000   0.79856094 -0.038067064     2.610997    33873.238 
 5420000   0.80271581  -0.12506494     2.608379    33891.186 
 5430000    0.7947946 -0.090749788    2.6014777    33890.779 
 5440000   0.79684059 -0.0091510158    2.6172857     33939.87 
 5450000   0.79489776 -0.039023104    2.6196985    33996.874 
 5460000   0.79498731 -0.00053879011    2.6058909    33929.011 
 5470000   0.79771366 0.0024014325    2.6067464    33879.607 
 5480000   0.80324756 -0.064097811    2.6280919    33975.717 
 5490000   0.80336444  0.042175013    2.6156854    33853.684 
 5500000   0.80260506  0.047008433    2.6267903    33946.538 
 5510000    0.7984088 -0.025970383    2.6229365    33985.445 
 5520000   0.79774852 -0.013588813    2.6092021    33857.681 
 5530000   0.79728591  0.051415654    2.6162821    33898.994 
 5540000   0.80244248  0.021309213    2.6009797    33825.067 
 5550000   0.80454795 -0.013627474    2.6311929    33969.915 
 5560000   0.80494447   0.12701303    2.6268247    33864.719 
 5570000   0.80177108 -0.010468684    2.6174043    33895.466 
 5580000   0.80184477 -0.010379763    2.6122805    33910.034 
 5590000   0.80367209  0.012308267    2.6222943    33918.376 
 5600000     0.803457  0.083083869    2.6163548    33805.328 
 5610000   0.80613443 -0.074409549    2.6285828    34006.386 
 5620000   0.80117328 -0.083142843     2.620212    33985.156 
 5630000   0.79814784  0.003110517    2.6183052    33960.534 
 5640000   0.79832172  0.026659037     2.619594    33979.611 
 5650000   0.80050522 -0.020099911    2.6281144    33993.251 
 5660000    0.7916163 -0.0043659022    2.6095897     33898.26 
 5670000   0.80610043 -0.029446224      2.64151    34027.313 
 5680000   0.79850438 -0.017482335    2.6253891    33962.214 
 5690000   0.79875447  0.040787194    2.6226143    33931.495 
 5700000   0.80847837 -0.036906975    2.6493029    34034.169 
 5710000   0.79692565  -0.13506784    2.6068579     33952.86 
 5720000   0.80665736 -0.015051049    2.6284238    33951.268 
 5730000   0.79686016 -0.026708957    2.6279038    33965.024 
 5740000   0.80827772 -0.013979012    2.6357393    33978.212 
 5750000    0.8055173  0.012850524    2.6274498    33944.494 
 5760000   0.80228423 -0.0027280144    2.6180973    33889.025 
 5770000   0.80247597  0.031245603    2.6100317    33876.304 
 5780000   0.80390796 -0.021051631    2.6364215    33979.007 
 5790000   0.80169332  0.055329276    2.6388705    34012.478 
 5800000   0.80071843  0.058311684    2.6226034    33940.608 
 5810000   0.79830898 -0.031877562    2.6032186    33869.055 
 5820000    0.7982417 -0.053296386    2.6249234    33986.515 
 5830000   0.80114101 -0.012183056    2.6195359    33899.302 
 5840000   0.80769057 -0.0095112323    2.6301155    33923.813 
 5850000   0.80208019 -0.047554169    2.6068118    33820.128 
 5860000   0.80117353   0.11666974    2.6392417    33944.725 
 5870000   0.80589411 -0.011081021    2.6308959    33971.303 
 5880000   0.79978933  0.044964643    2.6109766    33809.354 
 5890000    0.7928448 -0.016231813    2.6060035    33910.922 
 5900000   0.79824757 -0.0082760915    2.6093218    33916.127 
 5910000   0.80224436  0.038269542    2.6156193    33856.249 
 5920000   0.79292784 -0.085290456    2.6084152    33992.557 
 5930000   0.79927973 -0.008373116    2.6128476    33912.049 
 5940000   0.80343098  0.085376175    2.6109177    33796.536 
 5950000   0.80232547  -0.08990849    2.6250567    33988.577 
 5960000   0.80227545 -0.006117563    2.6084937    33817.927 
 5970000   0.80326578 0.0011906463    2.6141176    33852.385 
 5980000    0.8031252 -0.032618169    2.6273064    34005.432 
 5990000   0.80046193 -0.012188503    2.6228027      33983.7 
 6000000   0.80096277  -0.01597571     2.618745    33906.763 
 6010000   0.79872595 -0.064952002    2.6111514     33939.35 
 6020000   0.79859086 -0.085462682    2.6147924    33966.912 
 6030000   0.80166056 -0.042001301    2.6212976    33931.606 
 6040000   0.80262003 -0.0056256341     2.634355    33996.009 
 6050000   0.80736516  0.060808195    2.6186005     33870.33 
 6060000    0.8024774 0.0020827031    2.6347684    34026.327 
 6070000   0.80928141  -0.00726121     2.630834    33886.808 
 6080000   0.79970798 -0.014734791    2.6306143    33973.903 
 6090000    0.8003784 -0.010848025    2.6057261    33923.433 
 6100000    0.7968265 -0.015990408     2.615584    33935.673 
 6110000   0.79674483 -0.004630203    2.5977681    33857.014 
 6120000   0.80205836 -0.013542389     2.604968    33856.662 
 6130000   0.79322002 -0.026373151    2.6040014    33889.443 
 6140000   0.79390308 -0.026753466    2.5921451    33851.504 
 6150000   0.80485145 -0.0051655337    2.6311102    33959.391 
 6160000   0.79864681   0.01360063    2.6071449    33865.551 
 6170000   0.80513393   -0.0270639    2.6002855    33848.121 
 6180000   0.79919444 -0.049959058    2.5996063    33844.971 
 6190000   0.79648101  0.081775124    2.6045693    33815.184 
 6200000    0.7985396  -0.05493385    2.6154611    33956.187 
 6210000   0.79967269 -0.010673387    2.6252932    33935.594 
 6220000   0.80051668 -0.015761649    2.6053866    33819.111 
 6230000   0.79942303  0.021815002      2.60826    33845.039 
 6240000   0.79883965  -0.01800591    2.6045461    33875.292 
 6250000   0.80322123 -0.014350024     2.615398    33913.128 
 6260000   0.79358052 -0.032077078    2.6137597    33964.448 
 6270000   0.79632423 -0.025982093    2.6246913    33996.175 
 6280000   0.80361405 -0.0082239638     2.625216    33932.117 
 6290000   0.79801477 -0.0067262272    2.6046181    33882.195 
 6300000   0.80394839   0.13146081    2.6207652    33862.053 
 6310000   0.80339989 -0.0099493167    2.6258395    33949.116 
 6320000   0.79530202 -0.010782131    2.6146885    33916.884 
 6330000   0.80489013  0.033148357    2.6022357    33801.267 
 6340000   0.80123157 -0.0030983894    2.6286925    33941.609 
 6350000   0.80578357 -0.0091021769    2.6082917    33793.562 
 6360000   0.80463723 -0.016509808    2.6303138    33976.206 
 6370000   0.80485209  0.039685092    2.6170377    33888.189 
 6380000   0.79420636  -0.05600713     2.590353    33855.648 
 6390000   0.79519118 -0.070636703    2.5881258    33795.797 
 6400000   0.80339789  -0.15387034    2.6235707    33983.343 
 6410000   0.80660992 -0.020454735    2.6220618    33888.433 
 6420000   0.80278604 -0.036249631    2.6097282    33866.647 
 6430000   0.80462804 -0.011383049    2.6241961    33920.669 
 6440000   0.80034802 -0.015258911    2.6270615    33938.274 
 6450000   0.80065909 -0.003232189    2.6087096    33860.556 
 6460000   0.80264994 -0.046679027    2.6224629    33950.303 
 6470000   0.80007383  -0.01380937    2.6019528    33845.456 
 6480000   0.79951986 -0.030277291    2.6149736    33913.836 
 6490000   0.79543048   -0.0181258    2.6325363    34028.521 
 6500000   0.79212486 -0.014507679    2.6119173    33936.712 
 6510000   0.80406254  0.014020063    2.6239663    33927.301 
 6520000     0.798789 -0.041510676    2.6072527    33888.536 
 6530000   0.79527971 -0.014829563    2.5944734    33847.849 
 6540000   0.80128258 -0.027505476    2.6258918    33918.573 
 6550000   0.79268172 -0.0060247864    2.5909916    33832.347 
 6560000    0.8011343  0.002934953     2.620397    33894.747 
 6570000   0.80054046  0.008688026    2.6167232    33879.518 
 6580000     0.788293 -0.0018611638    2.5856908    33840.464 
 6590000   0.79951715  -0.01661061    2.5999847    33861.795 
 6600000   0.79865416 -0.014628159     2.607338    33851.618 
 6610000    0.8046289  0.019695155    2.6199519    33856.202 
 6620000   0.80169226  0.025515728    2.6230035    33898.973 
 6630000   0.80454405  -0.03913597    2.6281208    33948.748 
 6640000   0.79718712 -0.013539531    2.6165784    33941.958 
 6650000   0.80151346 -0.030866169    2.6063128    33876.307 
 6660000   0.79700327   0.03509242    2.5939333    33819.218 
 6670000    0.7899726 -0.018064405    2.6192545    34028.656 
 6680000   0.80257932 -0.0037467987    2.6271887     33887.32 
 6690000   0.79878653 -0.094975498    2.6042844    33914.858 
 6700000   0.79479717  -0.03414529    2.6071472    33930.398 
 6710000   0.80019931  0.022815145    2.6013428    33833.869 
 6720000   0.80738101 0.0098227103    2.6211794    33856.901 
 6730000   0.79979122 -0.013887959    2.6232541    33939.947 
 6740000   0.79223756  -0.01225876     2.595951    33829.137 
 6750000    0.8018384 0.0021533772    2.6212879    33908.959 
 6760000   0.80581413 -0.057613722    2.6047542    33844.221 
 6770000    0.8024858  0.010837056    2.6264045    33932.481 
 6780000   0.80572828 -0.018531337    2.6214244    33894.449 
 6790000   0.80374186 -0.0011872359     2.628418    33944.043 
 6800000   0.79828504 0.00033649102    2.6077866    33814.433 
 6810000   0.80382234 -0.018509497      2.61009    33835.466 
 6820000   0.80340964 -0.056415555    2.6269967    33981.962 
 6830000   0.80115088 -0.054244577     2.604487    33900.427 
 6840000   0.79859356  0.071354106    2.6182025    33864.689 
 6850000   0.80575281 0.0083660156    2.6213003    33874.655 
 6860000   0.79776943  0.018878777    2.6092355    33859.396 
 6870000   0.80686788 -0.014513843    2.6265176    33949.884 
 6880000   0.79788823  0.034534552    2.6313333    33966.682 
 6890000     0.804486 -0.012054102    2.6250579    33901.192 
 6900000   0.80072954 -0.065340839    2.5981942    33812.078 
 6910000   0.79904627 -0.0096825292    2.6014926    33827.952 
 6920000   0.79756411 -0.016343168    2.6196367    33918.412 
 6930000   0.79452804 0.0042694626    2.6014866    33836.891 
 6940000   0.79724379 -0.050865327    2.6185503    33945.741 
 6950000   0.79668654 -0.042638807    2.6050601    33852.441 
 6960000   0.80328174  0.015895556    2.6145278    33847.803 
 6970000   0.80319906 -0.014280749    2.6009732    33787.236 
 6980000   0.80080231  0.004442209    2.6017808    33798.907 
 6990000   0.80020857  -0.13839717    2.6044624    33941.556 
 7000000   0.79896173  -0.01381471    2.6100767    33895.565 
Loop time of 3881.62 on 216 procs for 5000000 steps with 27475 atoms

Performance: 556468.830 tau/day, 1288.122 timesteps/s
99.9% CPU use with 216 MPI tasks x 1 OpenMP threads

MPI task timing breakdown:
Section |  min time  |  avg time  |  max time  |%varavg| %total
---------------------------------------------------------------
Pair    | 428.06     | 450.99     | 512.76     |  63.0 | 11.62
Bond    | 8.4343     | 9.4458     | 11.005     |  13.1 |  0.24
Neigh   | 497.13     | 535.57     | 567.19     |  58.4 | 13.80
Comm    | 900.23     | 1056.6     | 1186.6     | 172.0 | 27.22
Output  | 2.3543     | 2.3605     | 2.4052     |   0.2 |  0.06
Modify  | 1453.5     | 1561.1     | 1699.7     | 121.9 | 40.22
Other   |            | 265.6      |            |       |  6.84

Nlocal:    127.199 ave 159 max 107 min
Histogram: 1 5 45 71 58 27 4 3 0 2
Nghost:    951.088 ave 1006 max 917 min
Histogram: 12 30 34 36 49 24 20 4 2 5
Neighs:    4584.09 ave 6508 max 3744 min
Histogram: 7 38 70 66 17 9 5 1 2 1

Total # of neighbors = 990164
Ave neighs/atom = 36.0387
Ave special neighs/atom = 0.633303
Neighbor list builds = 726879
Dangerous builds = 27
System init for write_restart ...
Setting atom values ...
  9000 settings made for charge
Setting atom values ...
  9000 settings made for charge
Setting atom values ...
  1900 settings made for charge
Setting atom values ...
  475 settings made for charge
System init for write_data ...
PPPM initialization ...
  using 12-bit tables for long-range coulomb (src/kspace.cpp:332)
  G vector (1/distance) = 1.23744
  grid = 120 120 120
  stencil order = 5
  estimated absolute RMS force accuracy = 0.000111005
  estimated relative force accuracy = 0.000111005
  using double precision FFTW3
  3d grid and FFT values/proc = 19683 8400
WARNING: Neighbor exclusions used with KSpace solver may give inconsistent Coulombic energies (src/neighbor.cpp:486)
Neighbor list info ...
  update every 1 steps, delay 0 steps, check yes
  max neighbors/atom: 2000, page size: 100000
  master list distance cutoff = 2.8
  ghost atom cutoff = 2.8
  binsize = 1.4, bins = 24 24 24
  2 neighbor lists, perpetual/occasional/extra = 2 0 0
  (1) pair lj/cut, perpetual
      attributes: half, newton on
      pair build: half/bin/newton
      stencil: half/bin/3d/newton
      bin: standard
  (2) pair coul/long, perpetual, skip from (1)
      attributes: half, newton on
      pair build: skip
      stencil: none
      bin: none
PPPM initialization ...
  using 12-bit tables for long-range coulomb (src/kspace.cpp:332)
  G vector (1/distance) = 1.23744
  grid = 120 120 120
  stencil order = 5
  estimated absolute RMS force accuracy = 0.000111005
  estimated relative force accuracy = 0.000111005
  using double precision FFTW3
  3d grid and FFT values/proc = 19683 8400
WARNING: Neighbor exclusions used with KSpace solver may give inconsistent Coulombic energies (src/neighbor.cpp:486)
Neighbor list info ...
  update every 1 steps, delay 0 steps, check yes
  max neighbors/atom: 2000, page size: 100000
  master list distance cutoff = 2.8
  ghost atom cutoff = 2.8
  binsize = 1.4, bins = 24 24 24
  2 neighbor lists, perpetual/occasional/extra = 2 0 0
  (1) pair lj/cut, perpetual
      attributes: half, newton on
      pair build: half/bin/newton
      stencil: half/bin/3d/newton
      bin: standard
  (2) pair coul/long, perpetual, skip from (1)
      attributes: half, newton on
      pair build: skip
      stencil: none
      bin: none
Setting up Verlet run ...
  Unit style    : lj
  Current step  : 7000000
  Time step     : 0.005
Per MPI rank memory allocation (min/avg/max) = 16.62 | 16.88 | 17.66 Mbytes
Step Temp Press TotEng Volume 
 7000000   0.79896173  -0.45384164    4.7745608    33895.565 
 7010000   0.80117327   -0.2105726    2.8283845    33895.565 
 7020000   0.79651024  -0.17276827    2.8102171    33895.565 
 7030000   0.79386809  -0.24876185    2.8021613    33895.565 
 7040000   0.80383853  -0.14618516    2.8221389    33895.565 
 7050000   0.79442754  -0.20224559    2.8066074    33895.565 
 7060000   0.80087453  -0.17806569    2.8195569    33895.565 
 7070000   0.80317709  -0.20130201    2.8109422    33895.565 
 7080000   0.79721149  -0.21965731    2.8127835    33895.565 
 7090000   0.80333896  -0.19185542     2.819591    33895.565 
 7100000   0.79948023   -0.1761923    2.8129068    33895.565 
 7110000   0.79771923  -0.18547591    2.8103253    33895.565 
 7120000   0.79637349  -0.17415796    2.7995598    33895.565 
 7130000   0.79634653  -0.21933715    2.7992438    33895.565 
 7140000   0.79935436  -0.18564004    2.8077645    33895.565 
 7150000   0.79969591  -0.16723043    2.8141815    33895.565 
 7160000   0.79987376  -0.22560577    2.8102051    33895.565 
 7170000   0.80539244   -0.1855425     2.817265    33895.565 
 7180000   0.79805707   -0.2152786    2.8083181    33895.565 
 7190000   0.79533752  -0.21893997    2.8102295    33895.565 
 7200000   0.79698038  -0.15866851    2.8057437    33895.565 
 7210000   0.80109325  -0.21576219    2.8117251    33895.565 
 7220000   0.79886484  -0.20691349     2.809891    33895.565 
 7230000    0.7952582  -0.14776515    2.8206617    33895.565 
 7240000   0.79284282  -0.14545042    2.7906691    33895.565 
 7250000   0.79694726  -0.20277523     2.813202    33895.565 
 7260000   0.79788269  -0.23515285    2.8056705    33895.565 
 7270000   0.80333896    -0.210349    2.8100586    33895.565 
 7280000   0.79531508  -0.21708683    2.8096529    33895.565 
 7290000    0.8018403  -0.20462934    2.8148009    33895.565 
 7300000    0.8012784  -0.22323051    2.8107963    33895.565 
 7310000   0.79650341  -0.22875862    2.8061562    33895.565 
 7320000   0.80211498  -0.22252816    2.8143917    33895.565 
 7330000   0.80399261  -0.16572645    2.8166118    33895.565 
 7340000   0.79677777   -0.1835155    2.8041848    33895.565 
 7350000   0.80077106  -0.25592375     2.798225    33895.565 
 7360000   0.79915278  -0.23653483    2.7990528    33895.565 
 7370000   0.79623831  -0.12539126    2.8062051    33895.565 
 7380000   0.79871868  -0.24599948    2.8085587    33895.565 
 7390000   0.79894626  -0.24511259    2.8097601    33895.565 
 7400000   0.79711209  -0.11623783    2.8190914    33895.565 
 7410000   0.80102265  -0.21521151    2.8128383    33895.565 
 7420000   0.79773303  -0.22267851    2.7971466    33895.565 
 7430000   0.80167397  -0.22502778    2.8041416    33895.565 
 7440000   0.79832259  -0.20785147    2.7993444    33895.565 
 7450000   0.79790328  -0.18093916    2.8010176    33895.565 
 7460000   0.80163971  -0.12190396    2.8133751    33895.565 
 7470000   0.80023471  -0.18362255    2.8030199    33895.565 
 7480000   0.80239732  -0.19812026    2.8118531    33895.565 
 7490000   0.79886509   -0.2192362    2.8040592    33895.565 
 7500000   0.80182155  -0.20241135    2.8044958    33895.565 
 7510000   0.80086968  -0.13740109    2.8125864    33895.565 
 7520000   0.79385893  -0.18301332    2.7969656    33895.565 
 7530000   0.79540251  -0.22921383    2.7935486    33895.565 
 7540000   0.79902129  -0.24228774      2.80273    33895.565 
 7550000   0.79898071  -0.15617844    2.8009281    33895.565 
 7560000   0.79783337   -0.2258192    2.7927068    33895.565 
 7570000    0.7955001  -0.19572343    2.8001158    33895.565 
 7580000   0.79779453  -0.24109575    2.7943048    33895.565 
 7590000   0.79956494  -0.21662321    2.8040305    33895.565 
 7600000    0.7947727   -0.2478552    2.7873691    33895.565 
 7610000   0.80102362  -0.21875389    2.8076289    33895.565 
 7620000   0.80797845  -0.16389448    2.8206596    33895.565 
 7630000   0.80336509  -0.23762121    2.8098181    33895.565 
 7640000   0.80228068  -0.15996196    2.8103412    33895.565 
 7650000   0.80741683  -0.25560661    2.8035573    33895.565 
 7660000   0.80337954  -0.19026637    2.8102455    33895.565 
 7670000   0.79808874   -0.1293312    2.8102918    33895.565 
 7680000   0.80180446  -0.22259287    2.8078626    33895.565 
 7690000   0.79575079  -0.21239776    2.7991318    33895.565 
 7700000   0.80270759   -0.2134921    2.8051118    33895.565 
 7710000   0.79459997  -0.22780617    2.7907619    33895.565 
 7720000   0.78739358  -0.17796886    2.7854759    33895.565 
 7730000   0.79429647  -0.19359992    2.8011395    33895.565 
 7740000   0.79438847   -0.1175057    2.8018553    33895.565 
 7750000   0.80010004  -0.16966822     2.800601    33895.565 
 7760000   0.79654231  -0.19529855    2.8047205    33895.565 
 7770000   0.79873752  -0.22112643    2.8082139    33895.565 
 7780000   0.80319024  -0.20197217    2.8220249    33895.565 
 7790000   0.80417658  -0.14317412     2.817724    33895.565 
 7800000   0.80295297  -0.17434649    2.8135782    33895.565 
 7810000   0.80062896  -0.15258981    2.8107155    33895.565 
 7820000   0.80046676  -0.16706259    2.8124932    33895.565 
 7830000   0.79978753  -0.15837514    2.8050996    33895.565 
 7840000     0.796574  -0.18248521    2.7944515    33895.565 
 7850000   0.80273601  -0.17886403    2.8151949    33895.565 
 7860000   0.80035876  -0.17216938    2.8133674    33895.565 
 7870000   0.79677338  -0.22607753    2.7950098    33895.565 
 7880000   0.80056857  -0.16360291    2.8049116    33895.565 
 7890000   0.80510417  -0.19335745    2.8077327    33895.565 
 7900000   0.79648193   -0.2065528    2.8024497    33895.565 
 7910000   0.79987553  -0.18759457    2.8137744    33895.565 
 7920000    0.8006022  -0.15111434    2.8117374    33895.565 
 7930000   0.79767345  -0.19786158    2.7984978    33895.565 
 7940000   0.79133489  -0.23807745     2.789809    33895.565 
 7950000   0.79606265  -0.20942662    2.7983079    33895.565 
 7960000   0.79644688  -0.25828069    2.7946242    33895.565 
 7970000   0.79687278  -0.17981568    2.7977098    33895.565 
 7980000   0.79904793  -0.21164273     2.804843    33895.565 
 7990000   0.80201261  -0.15293868    2.8173927    33895.565 
 8000000    0.7978441  -0.11743838    2.8121454    33895.565 
 8010000   0.80692029  -0.19303942    2.8125501    33895.565 
 8020000   0.79892359  -0.21823443    2.8012423    33895.565 
 8030000   0.80321608  -0.28442859    2.8006256    33895.565 
 8040000   0.79977102  -0.23859269    2.8065476    33895.565 
 8050000   0.79606473  -0.18145093    2.7981465    33895.565 
 8060000   0.79213322   -0.1211354       2.7976    33895.565 
 8070000   0.80322164  -0.19069388     2.809662    33895.565 
 8080000   0.80391221   -0.2031553    2.8104265    33895.565 
 8090000   0.79922276  -0.17032049    2.8080423    33895.565 
 8100000     0.801282  -0.19619094    2.8026818    33895.565 
 8110000   0.80539971  -0.23561326    2.8121292    33895.565 
 8120000   0.80681814  -0.20010822    2.8127381    33895.565 
 8130000   0.79916976  -0.21280792    2.7983203    33895.565 
 8140000   0.79983163  -0.18969491    2.8082264    33895.565 
 8150000   0.79434241  -0.21315882    2.7939135    33895.565 
 8160000   0.79876153  -0.20186904    2.7990537    33895.565 
 8170000   0.80060931  -0.15580371    2.7986684    33895.565 
 8180000   0.79571674  -0.16773552    2.7970488    33895.565 
 8190000   0.80196382    -0.168853    2.8118183    33895.565 
 8200000   0.80058775  -0.13840871    2.8135163    33895.565 
 8210000   0.80458397  -0.28480199    2.8079812    33895.565 
 8220000   0.78985517  -0.20148819     2.790049    33895.565 
 8230000    0.8023339  -0.23222037    2.7966813    33895.565 
 8240000   0.80238597  -0.21960201    2.8105057    33895.565 
 8250000   0.80375705  -0.15230557    2.8216227    33895.565 
 8260000    0.8003699  -0.23924052      2.80185    33895.565 
 8270000   0.79798292  -0.16743518    2.8076278    33895.565 
 8280000   0.79606391  -0.17408894    2.8034277    33895.565 
 8290000   0.79630142  -0.21680482     2.800823    33895.565 
 8300000   0.80756553  -0.20725348    2.8136519    33895.565 
 8310000   0.80637404  -0.16781658    2.8137348    33895.565 
 8320000   0.80821642  -0.10803677    2.8189732    33895.565 
 8330000   0.79837842   -0.1921252     2.810533    33895.565 
 8340000   0.79590009  -0.15255189    2.8066457    33895.565 
 8350000   0.80223805   -0.1230446    2.8119341    33895.565 
 8360000   0.80044685  -0.20222817    2.8064015    33895.565 
 8370000   0.79563278  -0.25423258    2.7923794    33895.565 
 8380000    0.7976884   -0.1637691    2.8077742    33895.565 
 8390000   0.78972304  -0.14806477     2.794983    33895.565 
 8400000   0.79535556  -0.19256995    2.7980605    33895.565 
 8410000    0.8046057   -0.2527162      2.81188    33895.565 
 8420000   0.79934666  -0.20851069    2.8000412    33895.565 
 8430000   0.79910065  -0.25426311      2.80674    33895.565 
 8440000   0.79659507  -0.19936753    2.8025064    33895.565 
 8450000   0.79665865  -0.21381964    2.8067561    33895.565 
 8460000   0.80215891   -0.1801241    2.8094609    33895.565 
 8470000   0.80745419  -0.22692799    2.8200634    33895.565 
 8480000    0.8046147  -0.23181357    2.8076227    33895.565 
 8490000   0.80410913  -0.12901728    2.8050163    33895.565 
 8500000    0.7994774  -0.21322819    2.8051354    33895.565 
 8510000   0.79888613  -0.18833642    2.8050718    33895.565 
 8520000   0.79494658  -0.21615386    2.7912328    33895.565 
 8530000   0.79769967  -0.17876014    2.8041928    33895.565 
 8540000   0.80224593  -0.20122975     2.805961    33895.565 
 8550000   0.79677051  -0.20585312     2.797662    33895.565 
 8560000   0.79659549  -0.11595175    2.8035655    33895.565 
 8570000   0.80125903  -0.27520213    2.8113047    33895.565 
 8580000   0.79486453  -0.24526404    2.7945132    33895.565 
 8590000   0.79620036  -0.20281226    2.7945784    33895.565 
 8600000   0.79929372  -0.18764598    2.8052065    33895.565 
 8610000   0.79805871  -0.14344886    2.8160188    33895.565 
 8620000   0.80065089  -0.17576135    2.7954067    33895.565 
 8630000   0.79574396  -0.22060639    2.7934686    33895.565 
 8640000   0.79603437  -0.21972178    2.7947218    33895.565 
 8650000   0.79715385  -0.14258219    2.8106292    33895.565 
 8660000   0.79982207  -0.24523647    2.7975331    33895.565 
 8670000   0.79673689   -0.2012985    2.7999556    33895.565 
 8680000   0.79933803  -0.21689603    2.8027264    33895.565 
 8690000   0.79574695  -0.17862868    2.7971985    33895.565 
 8700000   0.80260488  -0.19194136    2.8053748    33895.565 
 8710000   0.80478361  -0.20927477    2.8133961    33895.565 
 8720000   0.79418038  -0.19249968    2.8008674    33895.565 
 8730000   0.80343766  -0.16245195    2.8104488    33895.565 
 8740000   0.80304962  -0.17391253    2.8057379    33895.565 
 8750000   0.80696381  -0.15498537    2.8212639    33895.565 
 8760000   0.79566022  -0.21941613    2.7958389    33895.565 
 8770000   0.80439346  -0.17798407     2.806113    33895.565 
 8780000   0.80520387  -0.17898218    2.8079745    33895.565 
 8790000   0.79560603  -0.24777009    2.7982922    33895.565 
 8800000   0.79425995  -0.21565521     2.797275    33895.565 
 8810000   0.80279733  -0.23739767    2.8001622    33895.565 
 8820000   0.80247366  -0.19092222    2.8035795    33895.565 
 8830000   0.80037967  -0.24753321    2.8023969    33895.565 
 8840000   0.80202675  -0.17018483    2.8088743    33895.565 
 8850000   0.80075777  -0.15817412    2.8051952    33895.565 
 8860000   0.80060319  -0.17883937    2.8096023    33895.565 
 8870000    0.7953127  -0.16216368    2.7972205    33895.565 
 8880000   0.81041202   -0.1789945     2.820207    33895.565 
 8890000   0.80225203  -0.18486604    2.8064137    33895.565 
 8900000   0.79579589  -0.16857779    2.8012077    33895.565 
 8910000   0.79673406  -0.19174743    2.8007929    33895.565 
 8920000   0.79992603  -0.15757806    2.8085639    33895.565 
 8930000   0.80370062   -0.1750517    2.8134246    33895.565 
 8940000   0.80237721  -0.20280104    2.7988249    33895.565 
 8950000   0.80784736  -0.19441341    2.8192537    33895.565 
 8960000   0.80441313  -0.18640396     2.817987    33895.565 
 8970000   0.79740111  -0.20529881    2.8009265    33895.565 
 8980000   0.79557815  -0.13098989    2.8021116    33895.565 
 8990000   0.80552847   -0.1621199    2.8186576    33895.565 
 9000000   0.79616642  -0.14065234    2.8001268    33895.565 
 9010000   0.80191125   -0.1135667    2.8168601    33895.565 
 9020000   0.79846297  -0.19051631    2.8071229    33895.565 
 9030000   0.80256436  -0.20702576    2.8060581    33895.565 
 9040000   0.79391658  -0.15196081    2.8036334    33895.565 
 9050000   0.80163115  -0.12704279    2.8062792    33895.565 
 9060000   0.80095735  -0.24154564      2.80819    33895.565 
 9070000    0.7986777  -0.14790887    2.8081249    33895.565 
 9080000   0.79830577  -0.18291258    2.7987185    33895.565 
 9090000    0.8061096  -0.19734213    2.8135616    33895.565 
 9100000   0.80553935  -0.11326103    2.8173535    33895.565 
 9110000   0.80266868  -0.18209205    2.8126503    33895.565 
 9120000   0.80015844  -0.26506545    2.8011743    33895.565 
 9130000   0.80257052  -0.16705483     2.815872    33895.565 
 9140000   0.79846289   -0.2051709    2.8016894    33895.565 
 9150000   0.80929647 -0.081683565    2.8305096    33895.565 
 9160000   0.79948499  -0.20221028    2.7978506    33895.565 
 9170000   0.79312136  -0.25196757     2.791769    33895.565 
 9180000   0.80449426  -0.17709286    2.8103922    33895.565 
 9190000    0.7992446  -0.20943106    2.8062632    33895.565 
 9200000     0.799058  -0.19768937    2.8045077    33895.565 
 9210000   0.79606919  -0.19299422    2.7993546    33895.565 
 9220000   0.80269736  -0.22996245    2.7979801    33895.565 
 9230000   0.79756232  -0.18753148    2.8034102    33895.565 
 9240000   0.79927414  -0.16825095    2.8048433    33895.565 
 9250000    0.7893535  -0.14510557    2.7936603    33895.565 
 9260000   0.79546735  -0.22002106    2.8035782    33895.565 
 9270000    0.7988882  -0.14266698    2.8025893    33895.565 
 9280000   0.79525616  -0.16590396    2.7920582    33895.565 
 9290000    0.8004658  -0.16352308     2.807757    33895.565 
 9300000   0.79828488  -0.20649731     2.792913    33895.565 
 9310000   0.80243605  -0.18758054    2.8053303    33895.565 
 9320000   0.80063398  -0.23914776    2.8040453    33895.565 
 9330000   0.80189058  -0.13133184    2.8192346    33895.565 
 9340000   0.80152224  -0.14115866    2.8122858    33895.565 
 9350000    0.8028022   -0.1782907    2.8109725    33895.565 
 9360000   0.79534462  -0.16612732    2.8031315    33895.565 
 9370000   0.79659507  -0.23614772     2.795594    33895.565 
 9380000   0.79821408  -0.14355872    2.8129194    33895.565 
 9390000   0.80200184  -0.15716542     2.811023    33895.565 
 9400000   0.79801256   -0.1914393    2.8069535    33895.565 
 9410000   0.80825811  -0.24431454    2.8117294    33895.565 
 9420000   0.80168151  -0.15603934    2.8107827    33895.565 
 9430000   0.79629353  -0.22830887    2.7943699    33895.565 
 9440000    0.7954252  -0.17928532    2.8018252    33895.565 
 9450000   0.80291872  -0.13514862    2.8103821    33895.565 
 9460000   0.80594589  -0.19072259     2.816234    33895.565 
 9470000   0.79658459  -0.13220043    2.8094657    33895.565 
 9480000   0.79920253  -0.23319783    2.7877804    33895.565 
 9490000   0.80472404   -0.1907074    2.8169961    33895.565 
 9500000   0.79575948  -0.17351844    2.7930938    33895.565 
 9510000   0.79548476  -0.19196748    2.7977235    33895.565 
 9520000   0.80184693  -0.23658439    2.8077656    33895.565 
 9530000   0.80498284  -0.16617688    2.8077316    33895.565 
 9540000   0.79759569  -0.18853708    2.8025029    33895.565 
 9550000   0.80288684  -0.13972001      2.80757    33895.565 
 9560000   0.80083118  -0.19016231    2.8099841    33895.565 
 9570000   0.80561237   -0.2284897     2.808679    33895.565 
 9580000   0.79861589  -0.19133897    2.8099492    33895.565 
 9590000   0.79941027  -0.15997144    2.8077607    33895.565 
 9600000   0.80436729  -0.18143657     2.808174    33895.565 
 9610000   0.80131329  -0.22325993    2.8012485    33895.565 
 9620000   0.80112288   -0.2035204    2.8034438    33895.565 
 9630000   0.79628741  -0.20509908    2.7951974    33895.565 
 9640000   0.80479439  -0.18807055    2.8102687    33895.565 
 9650000    0.8019925  -0.15761506    2.8051499    33895.565 
 9660000   0.79531631  -0.22505624    2.8001933    33895.565 
 9670000   0.80050579  -0.21212161    2.8076051    33895.565 
 9680000   0.79756408  -0.22317582    2.7952545    33895.565 
 9690000   0.79923807  -0.21025636    2.8043812    33895.565 
 9700000   0.80461233  -0.22639288    2.8101201    33895.565 
 9710000   0.80454471  -0.14558768     2.815131    33895.565 
 9720000   0.80413792   -0.1509061    2.8155459    33895.565 
 9730000   0.80195551  -0.26416917    2.8096004    33895.565 
 9740000   0.80309955   -0.2037477    2.8069436    33895.565 
 9750000   0.80126733  -0.22828241    2.8101326    33895.565 
 9760000   0.79542018  -0.23415874    2.8019615    33895.565 
 9770000    0.7995662  -0.22784315    2.8052065    33895.565 
 9780000   0.79787907  -0.15061613    2.8079496    33895.565 
 9790000   0.80319601  -0.20838772    2.8171188    33895.565 
 9800000    0.8017993   -0.2479949    2.8124293    33895.565 
 9810000   0.79865552  -0.25871691    2.7952575    33895.565 
 9820000    0.8081853  -0.19219762     2.825004    33895.565 
 9830000   0.79882203  -0.16308083    2.7996716    33895.565 
 9840000   0.79672062  -0.19027218    2.8005117    33895.565 
 9850000   0.79608247  -0.21058987    2.7941533    33895.565 
 9860000   0.79659299  -0.11379818    2.8080424    33895.565 
 9870000   0.79424475  -0.21925313    2.7964125    33895.565 
 9880000   0.79931421  -0.27243249      2.80612    33895.565 
 9890000   0.80128146  -0.18875687    2.8071514    33895.565 
 9900000   0.79474001  -0.24756906    2.7918554    33895.565 
 9910000   0.79442751  -0.18645595    2.7987699    33895.565 
 9920000   0.80402438  -0.13330487    2.8187316    33895.565 
 9930000    0.7964384  -0.22189753    2.7958865    33895.565 
 9940000   0.79517627  -0.13186586    2.8003514    33895.565 
 9950000   0.81030445   -0.2170489    2.8196168    33895.565 
 9960000   0.79484969  -0.29915534    2.7890012    33895.565 
 9970000   0.79239257  -0.21051597    2.7926875    33895.565 
 9980000   0.80019779  -0.17274066    2.8029289    33895.565 
 9990000   0.79652345  -0.18994608    2.8053751    33895.565 
10000000   0.79537233  -0.18510996    2.7922449    33895.565 
10010000   0.80091926  -0.19642689    2.8037285    33895.565 
10020000   0.79925835  -0.26661662    2.8025773    33895.565 
10030000   0.78845487  -0.20372617    2.7835021    33895.565 
10040000   0.80217056  -0.22302216     2.807414    33895.565 
10050000   0.80028556  -0.16386092    2.8024162    33895.565 
10060000   0.79927148  -0.14144351    2.8095369    33895.565 
10070000   0.80260232  -0.15752219    2.8059507    33895.565 
10080000   0.79764101   -0.1696656    2.8060981    33895.565 
10090000   0.80092657  -0.12156238    2.8091582    33895.565 
10100000   0.80029544   -0.1903767    2.8051378    33895.565 
10110000   0.80743297  -0.20920519    2.8173559    33895.565 
10120000   0.80524085  -0.17993434    2.8169602    33895.565 
10130000   0.79742658  -0.18665006    2.8067985    33895.565 
10140000    0.8072555  -0.15865956     2.825249    33895.565 
10150000   0.80139957    -0.228026     2.808342    33895.565 
10160000   0.80314115  -0.21883512    2.8081479    33895.565 
10170000   0.80074834  -0.16591519    2.8042224    33895.565 
10180000   0.80231483  -0.11026413    2.8113521    33895.565 
10190000   0.80740577  -0.18666586     2.820281    33895.565 
10200000    0.7976064  -0.23128357    2.7964778    33895.565 
10210000   0.79371956   -0.2061288    2.7936333    33895.565 
10220000   0.79704993  -0.20646641    2.8003347    33895.565 
10230000   0.79835168  -0.12180859    2.8059741    33895.565 
10240000   0.80395399  -0.22090916    2.8201994    33895.565 
10250000   0.80138013  -0.13967919    2.8090096    33895.565 
10260000    0.8015105  -0.15254938    2.8062964    33895.565 
10270000   0.80210863  -0.17694192    2.8079846    33895.565 
10280000   0.79627908   -0.2070905     2.794079    33895.565 
10290000   0.80346449  -0.12598138    2.8126582    33895.565 
10300000   0.80630965  -0.14954295    2.8125028    33895.565 
10310000   0.79920837  -0.18038423    2.8096504    33895.565 
10320000   0.80457878  -0.22799632    2.8109293    33895.565 
10330000   0.80133749  -0.13680949    2.8052392    33895.565 
10340000   0.80573711  -0.17168709    2.8202085    33895.565 
10350000   0.80436393   -0.1533655    2.8197117    33895.565 
10360000   0.80107411  -0.22202783    2.8022161    33895.565 
10370000   0.79854576  -0.19512652    2.8011126    33895.565 
10380000   0.80044622  -0.18381304     2.812378    33895.565 
10390000   0.80046665  -0.21263286    2.8041323    33895.565 
10400000   0.79534857  -0.16449474    2.7985118    33895.565 
10410000   0.79971142  -0.20834199    2.7996598    33895.565 
10420000   0.79909596  -0.16444881    2.8073974    33895.565 
10430000   0.80128676  -0.20694238     2.810636    33895.565 
10440000    0.8022049  -0.17697942    2.8172434    33895.565 
10450000   0.80592581  -0.16055876    2.8157673    33895.565 
10460000   0.80355657  -0.20325516    2.8150059    33895.565 
10470000    0.7970234  -0.23491929    2.7916407    33895.565 
10480000   0.79671633  -0.19335554     2.797929    33895.565 
10490000   0.79691812  -0.18426216    2.7954954    33895.565 
10500000   0.79784594  -0.20360905     2.799326    33895.565 
10510000   0.80273525  -0.18217401    2.8099412    33895.565 
10520000   0.80971371  -0.22683154    2.8200114    33895.565 
10530000   0.80147945  -0.20600988    2.8149156    33895.565 
10540000   0.79695698  -0.17926543    2.8030933    33895.565 
10550000   0.79503665  -0.17443126     2.808846    33895.565 
10560000   0.79963754  -0.21486497    2.8043922    33895.565 
10570000   0.79880988  -0.13279294    2.8132458    33895.565 
10580000   0.80032928  -0.21405028    2.8070865    33895.565 
10590000   0.79573229  -0.16566994    2.8033113    33895.565 
10600000   0.79800775  -0.20147361     2.802085    33895.565 
10610000   0.80162711  -0.23120038    2.8046172    33895.565 
10620000   0.80320871  -0.19962985    2.8142029    33895.565 
10630000   0.80520494  -0.24353607    2.8019918    33895.565 
10640000   0.80553785  -0.20866309    2.8080713    33895.565 
10650000     0.801553   -0.1747079    2.8195464    33895.565 
10660000   0.79407081  -0.22638268    2.7886426    33895.565 
10670000   0.79702715  -0.15371255    2.7984938    33895.565 
10680000   0.80163215  -0.18742519    2.8056517    33895.565 
10690000   0.80600113  -0.17071408    2.8103187    33895.565 
10700000   0.80029517  -0.18018728    2.8052481    33895.565 
10710000   0.79945182  -0.12827177    2.8101416    33895.565 
10720000   0.79566898  -0.22921297    2.7980886    33895.565 
10730000   0.79716832  -0.17327294    2.8084196    33895.565 
10740000   0.80124746  -0.18279433    2.8070491    33895.565 
10750000    0.7953487  -0.26445105       2.7926    33895.565 
10760000   0.80390931  -0.25940007      2.80215    33895.565 
10770000   0.79839106  -0.20834633    2.8085881    33895.565 
10780000   0.80157023  -0.23669872    2.7998402    33895.565 
10790000   0.79322579  -0.17644623    2.8033153    33895.565 
10800000   0.79704989  -0.14650614    2.8027245    33895.565 
10810000   0.80137331  -0.19161555    2.8061663    33895.565 
10820000   0.79246838  -0.22341579    2.7940988    33895.565 
10830000   0.78773719  -0.19553078    2.7934566    33895.565 
10840000   0.80037996  -0.18512512    2.8085992    33895.565 
10850000   0.79525996  -0.19853061    2.7993505    33895.565 
10860000   0.80129565  -0.21025477    2.8087313    33895.565 
10870000   0.80143116  -0.16194602    2.8070542    33895.565 
10880000   0.80849917  -0.14505026     2.823229    33895.565 
10890000   0.80340816  -0.26621038    2.8001414    33895.565 
10900000    0.7995819  -0.17232889    2.8110538    33895.565 
10910000   0.80309696  -0.13977246    2.8146036    33895.565 
10920000   0.79477463  -0.20211446    2.7953752    33895.565 
10930000   0.79917542  -0.14933607    2.8030851    33895.565 
10940000    0.7992109  -0.21204285    2.8018388    33895.565 
10950000   0.79825948  -0.22428593    2.8091334    33895.565 
10960000   0.80509146  -0.19313108    2.8198131    33895.565 
10970000   0.79803128  -0.18726018    2.8020727    33895.565 
10980000   0.80026932  -0.22233109    2.7954764    33895.565 
10990000   0.80766501  -0.17614879    2.8230312    33895.565 
11000000   0.79428388  -0.23998184    2.7878394    33895.565 
11010000   0.80006539  -0.14456303    2.8051469    33895.565 
11020000   0.79946379  -0.14425137      2.80655    33895.565 
11030000   0.80223078   -0.1780535    2.8140604    33895.565 
11040000   0.80288077  -0.13013486    2.8183434    33895.565 
11050000   0.79898663  -0.21309676    2.8035415    33895.565 
11060000   0.80776009  -0.19213645    2.8139741    33895.565 
11070000   0.80202226  -0.22775678    2.8034797    33895.565 
11080000   0.79814321  -0.17149802    2.7999471    33895.565 
11090000   0.79950234  -0.16589246    2.8082287    33895.565 
11100000   0.79601844   -0.2139473    2.7909875    33895.565 
11110000   0.80026998  -0.16162079    2.8158187    33895.565 
11120000    0.8071495  -0.17260866    2.8242065    33895.565 
11130000   0.79944874  -0.13167277    2.8116132    33895.565 
11140000   0.79904407  -0.18042556    2.8004376    33895.565 
11150000   0.80013117  -0.16200982    2.8036977    33895.565 
11160000   0.79676366  -0.17432731    2.8046804    33895.565 
11170000   0.80111653  -0.13229797    2.8142053    33895.565 
11180000   0.79205933  -0.16663216    2.7921917    33895.565 
11190000   0.79964051  -0.19627156    2.8052128    33895.565 
11200000   0.80575635  -0.15717049    2.8144262    33895.565 
11210000   0.80585447  -0.19897491    2.8167592    33895.565 
11220000   0.79676689  -0.15046677    2.8028507    33895.565 
11230000   0.79511613  -0.18644592    2.7963941    33895.565 
11240000   0.79903448 -0.089470893    2.8146815    33895.565 
11250000   0.80597854  -0.15068283    2.8115641    33895.565 
11260000   0.79867354  -0.17126245    2.8086247    33895.565 
11270000   0.79842909  -0.19955618    2.8064866    33895.565 
11280000   0.80374271  -0.14026999    2.8117572    33895.565 
11290000    0.8000561  -0.16589731    2.8104517    33895.565 
11300000   0.79376858  -0.18360228    2.7967145    33895.565 
11310000   0.80058242   -0.1928497    2.7993251    33895.565 
11320000   0.79588363  -0.21501154    2.8060343    33895.565 
11330000   0.79875946  -0.17882146    2.8025053    33895.565 
11340000   0.80406728  -0.20463154    2.8165245    33895.565 
11350000   0.80803014  -0.21768874    2.8207748    33895.565 
11360000   0.79872729  -0.13028447    2.8187989    33895.565 
11370000    0.8011607  -0.17328665    2.8112696    33895.565 
11380000   0.80253237  -0.17652629    2.8089636    33895.565 
11390000   0.80186337  -0.16300863    2.8076289    33895.565 
11400000   0.80105509  -0.21168513    2.8091436    33895.565 
11410000   0.79928726  -0.14188101    2.8103214    33895.565 
11420000   0.80232975  -0.17710283    2.8109764    33895.565 
11430000   0.79989862  -0.17091555    2.8005869    33895.565 
11440000   0.80604183  -0.17420836    2.8145872    33895.565 
11450000   0.79616976  -0.19838196    2.7987649    33895.565 
11460000    0.8029788  -0.15721482    2.8056798    33895.565 
11470000   0.79667063  -0.24944273    2.7956321    33895.565 
11480000   0.80341556  -0.26441594    2.8071455    33895.565 
11490000   0.80008371  -0.20699229    2.8017338    33895.565 
11500000   0.80284569  -0.18946626    2.8027543    33895.565 
11510000   0.80243121  -0.19288458    2.8044744    33895.565 
11520000   0.79675561  -0.17011659    2.8079057    33895.565 
11530000    0.8029017  -0.14712777    2.8131169    33895.565 
11540000   0.80599648  -0.20477269    2.8084401    33895.565 
11550000    0.7942312  -0.22820333    2.7967246    33895.565 
11560000   0.78809127  -0.19683862    2.7895715    33895.565 
11570000   0.79360567  -0.17802242    2.7971192    33895.565 
11580000    0.8017579   -0.1725351    2.8082297    33895.565 
11590000   0.79747765  -0.19729601    2.7993718    33895.565 
11600000   0.80266607  -0.15074286    2.8106874    33895.565 
11610000   0.80510941  -0.13436401    2.8132775    33895.565 
11620000   0.80043893   -0.1990683    2.8033017    33895.565 
11630000   0.79539533  -0.19616166    2.7956161    33895.565 
11640000   0.80046219  -0.23693758    2.8062498    33895.565 
11650000   0.80150064  -0.18369853    2.7976374    33895.565 
11660000   0.79810964  -0.21730395    2.7997302    33895.565 
11670000   0.79677317  -0.14940923    2.8076786    33895.565 
11680000   0.80398191  -0.20426879    2.8067752    33895.565 
11690000   0.80038694  -0.20089824    2.8001009    33895.565 
11700000   0.80485719  -0.20565404    2.8065961    33895.565 
11710000   0.79817806  -0.18663181    2.7988285    33895.565 
11720000   0.80126438  -0.23405607    2.8117899    33895.565 
11730000   0.79952855  -0.18824517    2.8084999    33895.565 
11740000   0.79868569  -0.16180134    2.8062661    33895.565 
11750000   0.80226609  -0.14790095    2.8121523    33895.565 
11760000   0.79977757  -0.18474571    2.8133142    33895.565 
11770000   0.80641414  -0.19255212     2.817515    33895.565 
11780000   0.80351741  -0.21415909     2.810918    33895.565 
11790000   0.80704117  -0.17456985    2.8037497    33895.565 
11800000   0.79841381  -0.15229749    2.8066508    33895.565 
11810000   0.79556018  -0.19729356    2.7926558    33895.565 
11820000   0.80364181  -0.20303037    2.8102997    33895.565 
11830000   0.79709111  -0.19413159    2.7969208    33895.565 
11840000   0.79995388  -0.11600194    2.8099621    33895.565 
11850000   0.80282543  -0.20323054     2.808283    33895.565 
11860000   0.79861114  -0.17927325    2.8158706    33895.565 
11870000   0.79336005  -0.25818293    2.7875551    33895.565 
11880000   0.79099555  -0.11337018    2.7989216    33895.565 
11890000   0.79977511  -0.16889684    2.7938343    33895.565 
11900000    0.7910198  -0.17405611     2.794313    33895.565 
11910000   0.80492052  -0.21416447    2.8149047    33895.565 
11920000   0.79873964  -0.12850555    2.8062884    33895.565 
11930000   0.80071423   -0.1890804    2.8027791    33895.565 
11940000   0.80235274  -0.20744598    2.8053504    33895.565 
11950000   0.79917363   -0.1908944    2.8035161    33895.565 
11960000   0.80152382  -0.22737315    2.8011302    33895.565 
11970000   0.80045864  -0.21269032    2.8043512    33895.565 
11980000   0.79318721  -0.11386165    2.8081532    33895.565 
11990000   0.79998638  -0.18869209    2.8035864    33895.565 
12000000    0.8054707  -0.14707449    2.8238571    33895.565 
Loop time of 77347.5 on 216 procs for 5000000 steps with 27475 atoms

Performance: 27925.917 tau/day, 64.643 timesteps/s
99.8% CPU use with 216 MPI tasks x 1 OpenMP threads

MPI task timing breakdown:
Section |  min time  |  avg time  |  max time  |%varavg| %total
---------------------------------------------------------------
Pair    | 908.77     | 1012.6     | 1232.7     | 178.7 |  1.31
Bond    | 9.4225     | 12.228     | 17.702     |  40.2 |  0.02
Kspace  | 69649      | 71100      | 72254      | 197.3 | 91.92
Neigh   | 527.89     | 563.62     | 595.71     |  65.7 |  0.73
Comm    | 1474.1     | 2240.8     | 3226.6     | 766.4 |  2.90
Output  | 3.5155     | 3.5174     | 3.5595     |   0.2 |  0.00
Modify  | 1484.3     | 1998.5     | 2716.9     | 823.4 |  2.58
Other   |            | 416.4      |            |       |  0.54

Nlocal:    127.199 ave 169 max 111 min
Histogram: 11 51 93 33 10 7 5 2 2 2
Nghost:    951.852 ave 1047 max 893 min
Histogram: 11 25 48 41 39 24 13 9 3 3
Neighs:    4663.76 ave 8101 max 3602 min
Histogram: 13 91 76 15 10 4 2 2 1 2

Total # of neighbors = 1007372
Ave neighs/atom = 36.665
Ave special neighs/atom = 0.633303
Neighbor list builds = 672374
Dangerous builds = 0
System init for write_restart ...
PPPM initialization ...
  using 12-bit tables for long-range coulomb (src/kspace.cpp:332)
  G vector (1/distance) = 1.23744
  grid = 120 120 120
  stencil order = 5
  estimated absolute RMS force accuracy = 0.000111005
  estimated relative force accuracy = 0.000111005
  using double precision FFTW3
  3d grid and FFT values/proc = 19683 8400
WARNING: Neighbor exclusions used with KSpace solver may give inconsistent Coulombic energies (src/neighbor.cpp:486)
Neighbor list info ...
  update every 1 steps, delay 0 steps, check yes
  max neighbors/atom: 2000, page size: 100000
  master list distance cutoff = 2.8
  ghost atom cutoff = 2.8
  binsize = 1.4, bins = 24 24 24
  2 neighbor lists, perpetual/occasional/extra = 2 0 0
  (1) pair lj/cut, perpetual
      attributes: half, newton on
      pair build: half/bin/newton
      stencil: half/bin/3d/newton
      bin: standard
  (2) pair coul/long, perpetual, skip from (1)
      attributes: half, newton on
      pair build: skip
      stencil: none
      bin: none
Total wall time: 22:50:15
