LAMMPS (3 Mar 2020)
OMP_NUM_THREADS environment is not set. Defaulting to 1 thread. (src/comm.cpp:94)
  using 1 OpenMP thread(s) per MPI task
Reading data file ...
  orthogonal box = (0 0 0) to (33.79 33.79 33.79)
  6 by 6 by 6 MPI processor grid
  reading atoms ...
  28425 atoms
  scanning bonds ...
  1 = max bonds/atom
  reading bonds ...
  8700 bonds
Finding 1-2 1-3 1-4 neighbors ...
  special bond factors lj:   0          0          0         
  special bond factors coul: 0          0          0         
  2 = max # of 1-2 neighbors
  2 = max # of 1-3 neighbors
  4 = max # of 1-4 neighbors
  6 = max # of special neighbors
  special bonds CPU = 2.47631 secs
  read_data CPU = 2.6715 secs
9000 atoms in group polyA
9000 atoms in group counterions
9000 atoms in group chain
1425 atoms in group filler
4725 atoms in group water
4275 atoms in group salt
27000 atoms in group exc
Finding 1-2 1-3 1-4 neighbors ...
  special bond factors lj:   0          1          1         
  special bond factors coul: 0          1          1         
  2 = max # of 1-2 neighbors
  6 = max # of special neighbors
  special bonds CPU = 0.0178993 secs
75 rigid bodies with 1425 atoms
Neighbor list info ...
  update every 1 steps, delay 0 steps, check yes
  max neighbors/atom: 2000, page size: 100000
  master list distance cutoff = 1.7
  ghost atom cutoff = 1.7
  binsize = 0.85, bins = 40 40 40
  1 neighbor lists, perpetual/occasional/extra = 1 0 0
  (1) pair soft, perpetual
      attributes: half, newton on
      pair build: half/bin/newton
      stencil: half/bin/3d/newton
      bin: standard
Setting up Verlet run ...
  Unit style    : lj
  Current step  : 0
  Time step     : 0.005
WARNING: Communication cutoff 1.7 is shorter than a bond length based estimate of 1.755. This may lead to errors. (src/comm.cpp:686)
Per MPI rank memory allocation (min/avg/max) = 13.02 | 14.53 | 15.14 Mbytes
Step Temp Press TotEng Volume 
       0   0.79945076     5.407559    17.951162    38580.209 
   10000   0.80463481    11.962918    12.377668    38580.209 
   20000   0.80301465    13.501358    12.750363    38580.209 
   30000    0.7964134    14.979541    13.132919    38580.209 
   40000    0.7970997    16.496063    13.506084    38580.209 
   50000   0.80289923    18.028252    13.868465    38580.209 
   60000   0.79971224     19.52823    14.226018    38580.209 
   70000   0.79746229    21.057477    14.561358    38580.209 
   80000   0.79763192    22.549617    14.913137    38580.209 
   90000   0.80099223    24.051887    15.283402    38580.209 
  100000   0.79379438     25.52883    15.641793    38580.209 
  110000   0.79842979    27.025966    16.014529    38580.209 
  120000   0.79935905    28.515556    16.393111    38580.209 
  130000   0.80254528    30.006016    16.776857    38580.209 
  140000   0.79912476    31.544184    17.169585    38580.209 
  150000    0.8028317    32.953983    17.564401    38580.209 
  160000   0.79944566    34.430526    17.961674    38580.209 
  170000   0.80814877    35.924034    18.365382    38580.209 
  180000   0.79790422    37.342318    18.751761    38580.209 
  190000   0.80343093    38.891441     19.14631    38580.209 
  200000   0.80298253    40.330848    19.536987    38580.209 
  210000   0.80522575    41.848867    19.949957    38580.209 
  220000   0.79773408    43.318609     20.31173    38580.209 
  230000       0.7991     44.69914    20.723867    38580.209 
  240000   0.80267262    46.212692    21.118698    38580.209 
  250000   0.79666467    47.649064    21.507665    38580.209 
  260000   0.79763498     49.10773    21.904144    38580.209 
  270000   0.79781304     50.56565     22.30664    38580.209 
  280000   0.80803998    52.018046    22.710369    38580.209 
  290000   0.80312004    53.518154    23.093361    38580.209 
  300000   0.79720244    54.917592     23.48479    38580.209 
  310000   0.80059925    56.334468    23.881359    38580.209 
  320000   0.79900962    57.782431    24.275454    38580.209 
  330000   0.79489317    59.273206    24.653409    38580.209 
  340000    0.7990189    60.676981    25.058546    38580.209 
  350000   0.79407488    62.182672    25.449066    38580.209 
  360000   0.80014126    63.559926    25.850955    38580.209 
  370000   0.80041831    65.033624    26.241427    38580.209 
  380000   0.79750775    66.503236    26.635026    38580.209 
  390000   0.79826863    67.932559    27.016335    38580.209 
  400000   0.80228561    69.390033    27.428773    38580.209 
  410000   0.79814764    70.815627    27.808066    38580.209 
  420000   0.80576618    72.282158    28.211654    38580.209 
  430000   0.80014659    73.654016    28.589971    38580.209 
  440000   0.79160948    75.108772    28.962387    38580.209 
  450000   0.80352313    76.513139     29.37621    38580.209 
  460000   0.80374904    77.914638    29.776135    38580.209 
  470000   0.80078945    79.402335    30.159719    38580.209 
  480000   0.80011477    80.851543    30.547733    38580.209 
  490000   0.79847852     82.24274    30.939938    38580.209 
  500000   0.79531689    83.691368    31.318441    38580.209 
  510000    0.7993459    85.100636    31.717793    38580.209 
  520000   0.80038813    86.546733    32.113643    38580.209 
  530000   0.80224042    87.910384    32.496321    38580.209 
  540000   0.80867018    89.419593    32.896695    38580.209 
  550000   0.79809915    90.786168    33.261616    38580.209 
  560000   0.79659595    92.250471    33.653657    38580.209 
  570000   0.80158331    93.572264     34.05527    38580.209 
  580000    0.8025629    95.036103    34.444376    38580.209 
  590000     0.796754    96.468616    34.836277    38580.209 
  600000   0.79444101    97.822656     35.21515    38580.209 
  610000   0.79843523    99.329563    35.592716    38580.209 
  620000   0.80134739     100.6865    35.992763    38580.209 
  630000   0.79872094     102.1665    36.368219    38580.209 
  640000   0.79655428    103.54595    36.761564    38580.209 
  650000   0.80207236    104.91952    37.147864    38580.209 
  660000   0.80239315     106.3366    37.530369    38580.209 
  670000   0.79986275    107.76276    37.916954    38580.209 
  680000   0.80107414    109.19274    38.313251    38580.209 
  690000   0.79409314    110.58739    38.686245    38580.209 
  700000   0.79891671    112.01253    39.084019    38580.209 
  710000   0.79415946    113.35066    39.465102    38580.209 
  720000   0.79936594    114.82162    39.846422    38580.209 
  730000   0.79622508    116.20118    40.225254    38580.209 
  740000   0.79870598    117.55092    40.613055    38580.209 
  750000   0.79690727    118.98396    41.001838    38580.209 
  760000   0.79691823    120.37808    41.389285    38580.209 
  770000   0.80112127    121.73907    41.780377    38580.209 
  780000   0.80225912    123.18252    42.167002    38580.209 
  790000   0.79346777    124.59279    42.528436    38580.209 
  800000    0.8011309    125.97975    42.919406    38580.209 
  810000   0.80927856    127.43566    43.322929    38580.209 
  820000   0.79656512    128.73767    43.688138    38580.209 
  830000   0.79307761    130.20236    44.069356    38580.209 
  840000   0.80029519    131.54416      44.4626    38580.209 
  850000   0.80340753    133.03448    44.845297    38580.209 
  860000   0.80265014     134.3172    45.234022    38580.209 
  870000   0.80372449    135.76009    45.605249    38580.209 
  880000   0.79944185    137.19575    45.988049    38580.209 
  890000   0.80124293    138.50323    46.378356    38580.209 
  900000   0.80622937    140.01458    46.750526    38580.209 
  910000   0.80269005    141.28967     47.13468    38580.209 
  920000   0.80428958     142.7251    47.519997    38580.209 
  930000   0.79485049     144.0504    47.883472    38580.209 
  940000   0.80291234    145.37111    48.280793    38580.209 
  950000   0.80572761    146.92352    48.663218    38580.209 
  960000    0.8039043    148.25445     49.05833    38580.209 
  970000   0.80321266    149.59435    49.431155    38580.209 
  980000   0.80113577    151.04991    49.800901    38580.209 
  990000   0.80239168    152.44707    50.201009    38580.209 
 1000000   0.79638581    153.87087    50.551743    38580.209 
 1010000   0.81117983    155.24237    50.968498    38580.209 
 1020000   0.80159368    156.55334     51.33345    38580.209 
 1030000   0.80197369    158.00626    51.705643    38580.209 
 1040000   0.79698278    159.27915    52.084095    38580.209 
 1050000   0.79751084    160.69596    52.479724    38580.209 
 1060000   0.79911951    162.10217    52.840706    38580.209 
 1070000   0.79755052    163.51501    53.224331    38580.209 
 1080000   0.80020897    164.81993    53.607997    38580.209 
 1090000    0.7966636    166.20689    53.984906    38580.209 
 1100000   0.79344517     167.6299    54.363091    38580.209 
 1110000   0.80312005    168.98408    54.766812    38580.209 
 1120000   0.80305231    170.36495    55.123204    38580.209 
 1130000   0.80333097    171.66296    55.514654    38580.209 
 1140000   0.80863054    173.18351    55.891531    38580.209 
 1150000   0.79966517    174.54137    56.256858    38580.209 
 1160000   0.79880312    175.92762     56.64278    38580.209 
 1170000   0.79939246    177.25472    57.025039    38580.209 
 1180000   0.80139036    178.57058    57.391446    38580.209 
 1190000   0.80017461    180.05804    57.776637    38580.209 
 1200000   0.79920897    181.40637    58.155799    38580.209 
 1210000    0.8018896     182.7666    58.531417    38580.209 
 1220000   0.80016676     184.0932      58.9111    38580.209 
 1230000   0.79893614    185.51357    59.281046    38580.209 
 1240000   0.79897779    186.91683    59.662319    38580.209 
 1250000   0.79678298    188.30202    60.032191    38580.209 
 1260000   0.80130874    189.67485    60.415243    38580.209 
 1270000   0.79769534    190.92865    60.794351    38580.209 
 1280000   0.79930844    192.38584    61.159952    38580.209 
 1290000   0.79498255    193.67499    61.531033    38580.209 
 1300000   0.80591281    195.16381    61.931771    38580.209 
 1310000   0.80052501    196.48392    62.301672    38580.209 
 1320000   0.80198087    197.72727    62.696162    38580.209 
 1330000   0.80023774    199.21498    63.049231    38580.209 
 1340000   0.79331588    200.64153    63.421737    38580.209 
 1350000   0.80199659    201.99707    63.809118    38580.209 
 1360000   0.79505661    203.26765    64.181486    38580.209 
 1370000   0.80217321    204.67728    64.550379    38580.209 
 1380000   0.80379506    205.98702    64.946189    38580.209 
 1390000   0.80931732    207.45814    65.312442    38580.209 
 1400000   0.80547013    208.84553     65.70528    38580.209 
 1410000   0.80059604    210.13281    66.053186    38580.209 
 1420000   0.80363019    211.48374    66.440879    38580.209 
 1430000   0.80044446    212.94909    66.801702    38580.209 
 1440000   0.79570936    214.29818    67.183693    38580.209 
 1450000   0.79761191    215.65977    67.563319    38580.209 
 1460000   0.79807344    216.96536    67.932746    38580.209 
 1470000   0.80427805    218.25201    68.314757    38580.209 
 1480000    0.7964996    219.64501    68.678052    38580.209 
 1490000   0.80102603    220.95615    69.064633    38580.209 
 1500000   0.80412188    222.48619    69.436879    38580.209 
 1510000   0.80687909     223.8015    69.815771    38580.209 
 1520000   0.80755699    225.03905    70.197467    38580.209 
 1530000   0.79710704    226.51464    70.550732    38580.209 
 1540000   0.79901485    227.90147    70.917704    38580.209 
 1550000   0.80536682    229.15731    71.308495    38580.209 
 1560000   0.80612379    230.56467    71.694394    38580.209 
 1570000   0.80426201     231.8648    72.060825    38580.209 
 1580000   0.80814954      233.264    72.446555    38580.209 
 1590000   0.80215587    234.59258    72.809548    38580.209 
 1600000   0.80021658    235.92665     73.18148    38580.209 
 1610000   0.79679925    237.35514    73.538873    38580.209 
 1620000   0.79841524    238.67102    73.928689    38580.209 
 1630000   0.79628476    240.00793    74.300509    38580.209 
 1640000   0.80510292    241.47341    74.684899    38580.209 
 1650000   0.80028077    242.73679    75.056855    38580.209 
 1660000   0.78826555    244.22893    75.402875    38580.209 
 1670000   0.79857766    245.47002    75.779388    38580.209 
 1680000   0.79782989    246.92509    76.166327    38580.209 
 1690000   0.79750942     248.1997    76.536896    38580.209 
 1700000   0.80265165     249.5667    76.913591    38580.209 
 1710000   0.79823805    250.93117    77.267208    38580.209 
 1720000   0.79727238    252.23458    77.645923    38580.209 
 1730000   0.79900153    253.58465    78.036971    38580.209 
 1740000   0.79471256    254.93247    78.386246    38580.209 
 1750000   0.79814391    256.36071    78.774188    38580.209 
 1760000   0.80384845    257.68305    79.147463    38580.209 
 1770000    0.7988328    258.91342    79.521826    38580.209 
 1780000   0.80239973    260.34431    79.886477    38580.209 
 1790000    0.8053177    261.77213    80.266887    38580.209 
 1800000   0.80021771    262.98851    80.625339    38580.209 
 1810000   0.79359561    264.45326    80.992667    38580.209 
 1820000   0.79929006    265.70785    81.377627    38580.209 
 1830000   0.80079901    267.11197    81.751933    38580.209 
 1840000   0.79398856    268.47943    82.100532    38580.209 
 1850000   0.80407405     269.7036    82.491424    38580.209 
 1860000   0.79783032    271.15164    82.868551    38580.209 
 1870000   0.80637557    272.41649    83.244936    38580.209 
 1880000   0.80292851    273.75856    83.615253    38580.209 
 1890000   0.80262147    275.11202     83.97958    38580.209 
 1900000   0.79977174    276.60084    84.345644    38580.209 
 1910000   0.80621191    277.86419    84.718503    38580.209 
 1920000   0.80508925    279.20096    85.103163    38580.209 
 1930000   0.80044498     280.6689    85.460195    38580.209 
 1940000   0.79768508    281.85081    85.826363    38580.209 
 1950000   0.79877035    283.14561    86.184795    38580.209 
 1960000   0.80262117    284.55555    86.572263    38580.209 
 1970000   0.79282048    285.89676    86.930274    38580.209 
 1980000   0.80403415    287.24808    87.312645    38580.209 
 1990000   0.80329104    288.69131    87.687999    38580.209 
 2000000   0.79904811    290.01794    88.037254    38580.209 
Loop time of 1148.6 on 216 procs for 2000000 steps with 28425 atoms

Performance: 752217.039 tau/day, 1741.243 timesteps/s
99.9% CPU use with 216 MPI tasks x 1 OpenMP threads

MPI task timing breakdown:
Section |  min time  |  avg time  |  max time  |%varavg| %total
---------------------------------------------------------------
Pair    | 131.58     | 138.7      | 149.91     |  30.7 | 12.08
Bond    | 0.52289    | 2.8538     | 5.0793     |  57.1 |  0.25
Neigh   | 70.569     | 80.254     | 86.305     |  26.0 |  6.99
Comm    | 269.6      | 315.28     | 371.51     |  91.3 | 27.45
Output  | 0.64808    | 0.65419    | 0.67362    |   0.3 |  0.06
Modify  | 389.15     | 448.93     | 524.08     | 130.5 | 39.08
Other   |            | 161.9      |            |       | 14.10

Nlocal:    131.597 ave 165 max 119 min
Histogram: 23 58 52 48 20 7 3 2 0 3
Nghost:    410.699 ave 443 max 379 min
Histogram: 2 9 24 28 39 52 33 18 8 3
Neighs:    909.894 ave 1236 max 799 min
Histogram: 29 53 66 41 13 6 4 1 2 1

Total # of neighbors = 196537
Ave neighs/atom = 6.91423
Ave special neighs/atom = 0.612137
Neighbor list builds = 237473
Dangerous builds = 0
System init for write_data ...
Neighbor list info ...
  update every 1 steps, delay 0 steps, check yes
  max neighbors/atom: 2000, page size: 100000
  master list distance cutoff = 2.8
  ghost atom cutoff = 2.8
  binsize = 1.4, bins = 25 25 25
  1 neighbor lists, perpetual/occasional/extra = 1 0 0
  (1) pair lj/cut, perpetual
      attributes: half, newton on
      pair build: half/bin/newton
      stencil: half/bin/3d/newton
      bin: standard
Setting up Verlet run ...
  Unit style    : lj
  Current step  : 2000000
  Time step     : 0.005
Per MPI rank memory allocation (min/avg/max) = 13.05 | 14.63 | 15.17 Mbytes
Step Temp Press TotEng Volume 
 2000000   0.79904811     11.13073    5.4389263    38580.209 
WARNING: FENE bond too long: 2000001 1122 1123 1.42337 (src/MOLECULE/bond_fene.cpp:90)
 2010000   0.79723404   -0.1762731    2.4170107    35300.958 
 2020000   0.80327734  -0.17383146    2.4127852    35292.952 
 2030000   0.79748022  -0.16964072    2.4373806    35485.517 
 2040000   0.80693475  -0.16827493    2.4252311    35297.566 
 2050000   0.79940299  -0.17040954    2.4097094    35303.716 
 2060000   0.80262497  -0.17241657    2.4273293    35352.333 
 2070000   0.79960693  -0.16962861     2.427885    35392.445 
 2080000   0.80435212  -0.16677724    2.4477985    35433.317 
 2090000   0.79968032  -0.16670977    2.4210182     35400.32 
 2100000   0.80346418  -0.16667952    2.4426425    35451.014 
 2110000   0.80347498  -0.17047506    2.4371689    35361.406 
 2120000   0.79696192  -0.16797396    2.4201014    35385.426 
 2130000   0.79687123   -0.1705267    2.4316188    35433.479 
 2140000   0.79222397  -0.17410605    2.4199798    35415.943 
 2150000   0.80340542  -0.17752089    2.4338526    35339.676 
 2160000   0.79934948  -0.16585802    2.4225299    35360.973 
 2170000   0.80176698  -0.16292328    2.4350656    35417.258 
 2180000    0.8005933  -0.17715387    2.4254358    35294.512 
 2190000   0.80517274  -0.17353774    2.4216229    35309.019 
 2200000   0.80986082  -0.16810892    2.4326001    35287.676 
 2210000   0.79329011  -0.17082607    2.3996048    35289.122 
 2220000   0.79743691  -0.17091346    2.4011572    35229.003 
 2230000   0.79866619  -0.17244901    2.4138647    35292.704 
 2240000    0.8042737  -0.18329813    2.4186693    35269.105 
 2250000   0.79631375  -0.18000292    2.4119264    35318.016 
 2260000   0.80017035  -0.17576771    2.4075574    35223.105 
 2270000   0.79391558  -0.17367933    2.3820896    35153.713 
 2280000   0.80337109  -0.17726701    2.4186311    35257.987 
 2290000   0.79902233  -0.16931858    2.3905113    35191.845 
 2300000   0.79362507  -0.17343396    2.3909476     35211.78 
 2310000   0.79944332  -0.17503341    2.4065586    35236.853 
 2320000   0.79891005   -0.1760799    2.4102633      35302.7 
 2330000   0.81031951   -0.1689274    2.4489072    35343.466 
 2340000   0.80171924  -0.16544965    2.4109248    35264.648 
 2350000   0.79751803  -0.17655994    2.3957376    35179.153 
 2360000   0.79546634  -0.18198373    2.4013556    35235.195 
 2370000   0.79557946   -0.1749204    2.3957232    35201.272 
 2380000   0.79920184  -0.17026808    2.3938123    35184.067 
 2390000   0.79964842  -0.17283657    2.4010256    35182.526 
 2400000   0.79971635   -0.1762637    2.3963428    35175.265 
 2410000   0.79979256  -0.17280879    2.3877341    35120.001 
 2420000    0.8034753  -0.17130495     2.386616    35130.681 
 2430000   0.80074602  -0.18075883    2.3947191    35222.212 
 2440000    0.8013633   -0.1657611    2.3926345      35137.6 
 2450000    0.7947244  -0.17562484    2.4010655    35248.079 
 2460000    0.7978184  -0.17128544    2.3859791    35103.483 
 2470000   0.80779137  -0.17000231    2.3998478    35146.386 
 2480000   0.79725132  -0.17182065    2.3893235    35151.818 
 2490000   0.79942093  -0.17506681    2.4070279    35240.455 
 2500000   0.80494972  -0.17594862    2.3878723    35101.796 
 2510000   0.79976503  -0.17244958    2.3929242    35163.977 
 2520000   0.80043138  -0.16918734    2.3998701    35168.541 
 2530000   0.79630873   -0.1766378    2.3716137    35061.586 
 2540000    0.7976931  -0.18559788    2.3857864    35143.672 
 2550000   0.79695679  -0.17760739    2.3907061    35129.611 
 2560000   0.79360794  -0.18266893      2.37981     35141.42 
 2570000   0.79815018  -0.17345955    2.3914266    35139.913 
 2580000   0.80109419  -0.16937834    2.3933256     35058.54 
 2590000   0.80397549  -0.17598524    2.4017775    35164.459 
 2600000    0.7977629  -0.16609144    2.3898148     35161.86 
 2610000   0.79860278   -0.1750878    2.3969798    35257.838 
 2620000   0.80201396  -0.17827087    2.3994131     35201.61 
 2630000   0.79501071  -0.16163542    2.3843496    35148.295 
 2640000   0.80117289   -0.1855366    2.3768935    35092.733 
 2650000   0.80168697  -0.17678495    2.3858844    35114.946 
 2660000   0.79782377  -0.17425364     2.392781    35255.812 
 2670000   0.80059492  -0.18153311    2.4070487    35250.874 
 2680000   0.80383835  -0.17096803    2.4098034    35188.493 
 2690000   0.79312433  -0.17810679    2.3944067     35200.28 
 2700000   0.79790388  -0.17295278    2.3907727    35195.014 
 2710000   0.79809043  -0.17308464    2.3989149     35166.26 
 2720000   0.80353628  -0.17649543    2.3877713    35094.741 
 2730000   0.80981806  -0.16817791    2.3910921    35114.599 
 2740000   0.79874306  -0.17484875    2.3939672    35170.227 
 2750000    0.8001879  -0.18425484    2.4191016    35338.777 
 2760000   0.79574453  -0.17152576    2.3870684     35185.05 
 2770000   0.79987953   -0.1754561    2.3840538    35137.286 
 2780000   0.80267905  -0.18116532    2.3862086    35156.567 
 2790000   0.80193851  -0.17234066    2.3893879    35090.967 
 2800000    0.7926343  -0.17784166    2.3721399    35107.095 
 2810000   0.80097926  -0.17583682    2.3824697    35085.237 
 2820000   0.79401283  -0.17732719    2.3772922    35134.114 
 2830000   0.80040733  -0.16944424    2.3786632    35045.391 
 2840000   0.80310138  -0.15861183    2.3919335    35120.871 
 2850000   0.79907883  -0.17270507    2.3761817    35045.521 
 2860000   0.79555576  -0.18169929    2.3855545    35160.882 
 2870000   0.80444495  -0.17307939    2.3898565    35131.221 
 2880000   0.79865591  -0.17418724    2.3785428    35144.462 
 2890000   0.80232182   -0.1716206     2.401884    35267.277 
 2900000   0.80095734  -0.16611651    2.4001453    35183.593 
 2910000   0.80356961  -0.17359366    2.3933681    35113.266 
 2920000   0.80081501  -0.17683201    2.3817665    35072.145 
 2930000   0.79999324   -0.1610153    2.3942559    35159.732 
 2940000   0.79421966  -0.17564241    2.3703325    35070.782 
 2950000   0.79622647  -0.16387876    2.3920994    35186.581 
 2960000   0.80084437  -0.17319062    2.3770922    35057.176 
 2970000    0.8043213  -0.17357629    2.3820334    35095.524 
 2980000   0.79737764  -0.17593041    2.3930352    35172.478 
 2990000   0.80204571  -0.18215606    2.3818423    35096.412 
 3000000    0.8027143  -0.16853351    2.3948001    35170.838 
 3010000    0.8076755  -0.17632574    2.3777907    35035.747 
 3020000   0.80457324  -0.17489135    2.4179931    35270.046 
 3030000   0.80464273  -0.17459974    2.3894442    35103.458 
 3040000   0.79970981  -0.18017388     2.395932    35166.051 
 3050000   0.79943108  -0.16779625    2.3759598    35074.853 
 3060000   0.79606126  -0.17711285    2.3700787    35053.644 
 3070000   0.79283053  -0.17140781    2.3907352    35230.539 
 3080000   0.80630605  -0.17559017     2.388986    35088.798 
 3090000   0.80291518  -0.16975533    2.3949196    35161.158 
 3100000    0.7937914   -0.1712821    2.3854855    35179.155 
 3110000   0.79903123  -0.17196588    2.3911344    35162.898 
 3120000   0.79734251  -0.17073037    2.3914392    35148.803 
 3130000    0.7993761  -0.16390582    2.3961782    35186.975 
 3140000   0.80149784  -0.16934349     2.407333    35251.942 
 3150000   0.79719463  -0.16791468    2.3762803    35090.758 
 3160000   0.80342895  -0.17831773    2.3934164    35117.783 
 3170000   0.80897744  -0.17333787    2.3871446    35040.659 
 3180000   0.80335969  -0.16599038    2.4042118    35168.716 
 3190000   0.80574048  -0.17187096      2.38063    35097.333 
 3200000   0.79535532  -0.17124586    2.3875002    35189.752 
 3210000   0.79924851  -0.17330889     2.386743    35130.208 
 3220000   0.79392583  -0.17778605    2.3893675     35219.34 
 3230000   0.79578975  -0.17482908    2.3615717    35001.706 
 3240000   0.80376837  -0.17430582    2.3945798    35144.155 
 3250000   0.79984528  -0.17482318    2.3824226    35070.202 
 3260000   0.79493068  -0.17030953    2.3843464    35153.011 
 3270000   0.79929444  -0.17634384    2.3870017     35102.61 
 3280000   0.80560574  -0.16481483    2.3974099    35170.736 
 3290000   0.79452605  -0.16984809    2.3972669    35240.752 
 3300000   0.79864807   -0.1711792    2.3944795    35225.328 
 3310000   0.80044759  -0.16447782     2.374601    35081.093 
 3320000   0.79813804  -0.16414365    2.3838349     35134.09 
 3330000   0.80639479  -0.17638036    2.3905318    35114.544 
 3340000   0.79859549  -0.17117989    2.3872677     35231.44 
 3350000   0.79888142  -0.16838204    2.3765177    35047.031 
 3360000    0.8009974  -0.18222071     2.391418    35157.437 
 3370000   0.80205824   -0.1763906    2.3848328    35118.054 
 3380000   0.80177026  -0.17883809    2.3860437    35123.912 
 3390000   0.80393242  -0.16866111    2.4024306    35175.697 
 3400000   0.80052176  -0.16376413    2.3987476    35218.015 
 3410000   0.79596196  -0.17543045     2.396834    35211.966 
 3420000   0.79733994  -0.17623122    2.3906839    35175.858 
 3430000     0.798115  -0.17670402    2.3775324    35130.361 
 3440000   0.80228782  -0.17132081    2.4041785    35231.573 
 3450000   0.79789505  -0.16814927     2.404217    35258.001 
 3460000   0.80399112  -0.16896371    2.3976274    35145.507 
 3470000   0.79821451  -0.17269414    2.3970989    35198.893 
 3480000   0.80039445  -0.17383989    2.3872745    35113.362 
 3490000    0.7987602  -0.16917172    2.3758794     35075.55 
 3500000   0.79647813  -0.18280362    2.3847701    35181.463 
 3510000   0.80625423  -0.17060593    2.3826831    35084.007 
 3520000   0.79669704  -0.17150885     2.394416    35155.292 
 3530000   0.80748956  -0.17220821    2.4072647    35183.499 
 3540000   0.80305275  -0.16449328    2.3827974    35073.961 
 3550000   0.80047738  -0.17133826    2.3850309    35090.608 
 3560000   0.79750816  -0.16880827    2.3822456    35145.989 
 3570000   0.80003157  -0.17573697    2.3972923    35174.548 
 3580000   0.80225019  -0.18554901    2.3819995    35089.366 
 3590000   0.80456327  -0.17198679    2.3912774    35111.553 
 3600000   0.80096096   -0.1755868    2.3851703    35098.335 
 3610000   0.79872524  -0.17664338    2.3873452      35131.6 
 3620000   0.80428485  -0.17382854    2.3727461    35010.898 
 3630000   0.79810897   -0.1830667    2.3735793    35128.403 
 3640000   0.79589367  -0.17030116    2.3716689    35079.869 
 3650000   0.80042028  -0.17294338    2.3612962    35047.769 
 3660000   0.79467053  -0.17320072    2.3606008    35028.647 
 3670000   0.80006532  -0.17709377    2.3958755     35183.35 
 3680000   0.80348542  -0.16830187    2.3868411    35080.226 
 3690000   0.79867865  -0.16854798    2.3825851    35076.626 
 3700000   0.80061587  -0.18120683    2.3837982    35096.002 
 3710000   0.79665779  -0.16662228    2.3788243    35124.153 
 3720000   0.80255077  -0.17709781    2.3777333    35061.808 
 3730000   0.79984288  -0.17174784    2.3909102    35172.698 
 3740000   0.79756373  -0.16690452    2.3546933    34929.805 
 3750000   0.80543266  -0.17885491    2.3861784    35046.815 
 3760000   0.80404443  -0.17378181    2.3862467    35124.181 
 3770000   0.80349407  -0.17118956    2.3817521    35116.722 
 3780000   0.80169107   -0.1809136    2.3894355    35141.672 
 3790000   0.80030231  -0.17786695    2.3760029    35110.023 
 3800000   0.79733628  -0.18162803    2.3721619    35106.991 
 3810000   0.79600771  -0.18058996    2.3674357    35106.923 
 3820000   0.79657945  -0.17094588    2.3642956    35029.514 
 3830000   0.79959535  -0.16827277     2.385535    35145.087 
 3840000   0.80171925  -0.17154346    2.3751308    35068.782 
 3850000      0.79186  -0.17170278    2.3754695    35120.665 
 3860000   0.79883069  -0.17865546    2.3752514    35138.976 
 3870000   0.80116895   -0.1809168    2.3689676    35075.816 
 3880000   0.79942801  -0.17295186    2.3628457    34983.967 
 3890000   0.79914683  -0.17144247    2.3630535    35066.638 
 3900000    0.7947746  -0.16697947    2.3765465    35159.677 
 3910000   0.80199576  -0.17423458    2.3758877    35094.337 
 3920000   0.80141365  -0.17914374    2.3782346     35116.79 
 3930000   0.80678069  -0.16931462    2.3838365     35070.84 
 3940000   0.79795737  -0.16125176    2.3657475    35044.763 
 3950000   0.79737321  -0.17386112     2.377746    35061.997 
 3960000   0.80096963  -0.18005254    2.3977262     35167.04 
 3970000   0.79967376  -0.17760972    2.3790115    35103.877 
 3980000   0.79777752  -0.17185553    2.3728121    35079.325 
 3990000    0.8058218  -0.16731556    2.3897578    35124.456 
 4000000   0.79457363  -0.17777115    2.3894626    35216.434 
 4010000   0.80162065  -0.17227386    2.3854849    35130.101 
 4020000   0.80332334  -0.17868412    2.3863796    35102.864 
 4030000   0.80138994   -0.1717825    2.4044469    35216.047 
 4040000   0.80104097  -0.16836566    2.3851422    35140.681 
 4050000   0.80132858  -0.18262248    2.3809094    35078.293 
 4060000   0.80153408  -0.17502175     2.380898    35072.459 
 4070000   0.79806809  -0.17292704    2.3751984    35112.272 
 4080000   0.79846871  -0.17095957    2.3747812    35041.936 
 4090000     0.798049  -0.17092819    2.3643222    35065.072 
 4100000   0.79441192  -0.16440678    2.3650883    35009.705 
 4110000    0.8042194  -0.17129961    2.3692223    35026.852 
 4120000   0.79843858  -0.17725619    2.3476588    34976.418 
 4130000   0.79986717  -0.17643012     2.380317    35038.924 
 4140000   0.80055554  -0.17482073    2.3723378    35070.138 
 4150000   0.80313412  -0.17336114    2.3707079    35031.845 
 4160000   0.80303282  -0.17333556     2.390033    35147.998 
 4170000   0.79572018  -0.17633755    2.3716521    35060.886 
 4180000   0.79631758  -0.17616908     2.376445    35089.057 
 4190000   0.79664078  -0.17774213    2.3718691    35069.212 
 4200000   0.79741592  -0.17495939    2.3704069    35061.312 
 4210000   0.80135204  -0.18000891    2.3958987    35192.221 
 4220000   0.79336123  -0.17175918    2.3735388    35043.092 
 4230000   0.79167686  -0.18411334     2.344135    34955.803 
 4240000   0.80137117  -0.17399225    2.3781087    35055.585 
 4250000   0.79818496  -0.18370808     2.381709    35135.637 
 4260000    0.8026198  -0.16800773    2.3818151     35075.46 
 4270000    0.7900903  -0.17129359    2.3565567    35042.736 
 4280000   0.80408193  -0.17408095    2.3704997     35014.07 
 4290000   0.80692408  -0.16976468     2.381906    35052.759 
 4300000   0.79932376   -0.1754185    2.3820922     35095.25 
 4310000   0.79699599  -0.17798294    2.3825191    35112.271 
 4320000   0.80085924  -0.16528333    2.3665993    35031.625 
 4330000   0.80623145  -0.17396831    2.3729997     34993.98 
 4340000    0.7974482  -0.16763719    2.3626727    35049.232 
 4350000   0.80541772  -0.17884337    2.4101716    35235.288 
 4360000   0.79419001  -0.17594503    2.3522306    34993.447 
 4370000   0.80039954  -0.16367143    2.3497212     34929.87 
 4380000   0.79665373  -0.16950126    2.3750665     35079.83 
 4390000   0.79995827  -0.17393639    2.3701614    35073.807 
 4400000   0.79874137  -0.17004398    2.3798047    35082.366 
 4410000    0.8002422  -0.16975488    2.3724928     35086.01 
 4420000   0.79582364  -0.17998748     2.372226    35094.784 
 4430000   0.80629961  -0.17757255    2.3776038    35029.082 
 4440000   0.78795077  -0.17165028    2.3485858    35076.973 
 4450000   0.79932309  -0.17291514    2.3709433    35055.104 
 4460000   0.80014676  -0.17415345    2.3554597    34994.927 
 4470000   0.79128977  -0.17783887    2.3651414    35070.153 
 4480000   0.79852626  -0.17862636    2.3924217    35171.167 
 4490000   0.80464859  -0.17493925       2.3597    34991.131 
 4500000   0.80397961  -0.17279059    2.3795804    35049.766 
 4510000   0.80338408  -0.17968583    2.3730191    35031.487 
 4520000   0.80374677  -0.16636085    2.3866145    35152.407 
 4530000   0.79787519  -0.17146774      2.34999    34945.913 
 4540000   0.80565032  -0.16671513     2.378827    35070.268 
 4550000   0.79737657  -0.17940985    2.3796344    35184.499 
 4560000   0.79352654  -0.18705695    2.3560606    35049.656 
 4570000   0.80193822  -0.17808245    2.3845361    35089.734 
 4580000   0.79506698  -0.17981813    2.3636439    35048.998 
 4590000   0.79455677  -0.17437433    2.3872295     35199.71 
 4600000   0.81113073  -0.17098551    2.3892139    35072.387 
 4610000   0.80276094  -0.17044415    2.3845261    35058.968 
 4620000   0.80055134  -0.16989513      2.37584    35044.283 
 4630000   0.80485004  -0.16745785    2.3754889    35033.257 
 4640000   0.79916962  -0.16688782    2.3735759    35069.897 
 4650000   0.79988149  -0.16939087    2.3751352    35077.759 
 4660000   0.79838469   -0.1821661    2.3573895    35035.626 
 4670000   0.80277338  -0.16626613    2.3920248    35115.372 
 4680000   0.80125058  -0.16867983     2.354868    34973.033 
 4690000   0.79525608  -0.17525164    2.3631738    35039.855 
 4700000   0.79501606   -0.1637091    2.3742623    35161.409 
 4710000   0.79878559  -0.17027623    2.3551025    34940.547 
 4720000   0.80437468  -0.17045059    2.3760676    35035.223 
 4730000   0.79711238  -0.17225244    2.3817628    35073.962 
 4740000   0.79903863   -0.1771845    2.3641601    35045.245 
 4750000   0.79962691  -0.17122115    2.3776349    35121.635 
 4760000   0.80245015    -0.177333    2.3715414     35057.56 
 4770000   0.80055058  -0.17374987    2.3804633    35107.308 
 4780000   0.79387163  -0.17488292    2.3680999    35116.322 
 4790000   0.80035924  -0.17971339    2.3664813    35019.273 
 4800000   0.79840602  -0.17503838    2.3601401    35001.021 
 4810000   0.80205744  -0.17393225    2.3693072     34996.97 
 4820000   0.79512173  -0.17787723    2.3502201    34955.941 
 4830000    0.7978913  -0.17268281    2.3535476    34929.691 
 4840000    0.8036994  -0.16828689    2.3673115     35032.76 
 4850000   0.80220337  -0.16955965    2.3799475    35082.882 
 4860000   0.79879969  -0.17003302     2.356438    35016.552 
 4870000   0.80593722  -0.17935546    2.3807427    35059.394 
 4880000   0.79959699  -0.16125987    2.3730875    35061.768 
 4890000   0.80023632  -0.17823132    2.3541549    34949.375 
 4900000   0.80120711  -0.16887523    2.3822067    35121.188 
 4910000   0.80451026  -0.17026635      2.39147    35111.115 
 4920000   0.79321516   -0.1665771    2.3639059    35051.053 
 4930000   0.79718534  -0.17904965    2.3629609    34983.179 
 4940000   0.80004367  -0.18158271    2.3711156    35014.574 
 4950000   0.80160571  -0.18510253    2.3731773    35049.345 
 4960000   0.79868983  -0.17560475    2.3756073    35084.131 
 4970000   0.79577862  -0.17337383    2.3557326    34955.399 
 4980000   0.80073586  -0.17388763    2.3577038    34968.298 
 4990000   0.79615369   -0.1744129     2.359398    35006.049 
 5000000   0.79765001  -0.17841059    2.3497368    34948.232 
 5010000    0.8013148  -0.16880523    2.3676891    35054.324 
 5020000    0.8076696  -0.17959778    2.3763033    35074.287 
 5030000   0.79800051  -0.16651097    2.3743629    35115.553 
 5040000   0.80365441  -0.17755304    2.3587226    34935.843 
 5050000   0.80886467   -0.1782157    2.3983803    35146.994 
 5060000   0.79977101  -0.16925336    2.3733797    35056.306 
 5070000   0.79355799   -0.1697197    2.3514995    34994.538 
 5080000   0.80407173  -0.17469099    2.3642633    34958.471 
 5090000   0.80046241  -0.17019256    2.3703287     35097.15 
 5100000   0.79812493  -0.16902258    2.3648934    35020.076 
 5110000   0.79662287  -0.17409847    2.3644159    35061.078 
 5120000   0.80368508  -0.17057227    2.3629983    34980.526 
 5130000   0.79126168  -0.17415687    2.3454773     34992.19 
 5140000   0.79536772  -0.16904088    2.3465395    34988.151 
 5150000   0.79628005   -0.1749659    2.3659857    35017.199 
 5160000   0.80257988  -0.16991492    2.3645711    35040.072 
 5170000   0.79635492  -0.17786421    2.3590006      35060.3 
 5180000     0.804201  -0.18015078    2.3700212    34972.258 
 5190000   0.80477812   -0.1725784    2.3899387    35117.349 
 5200000   0.80556492  -0.17172402    2.3783945    35084.218 
 5210000   0.79813866  -0.17333673    2.3681433    35049.152 
 5220000   0.80139942  -0.17847661    2.3668925    35006.183 
 5230000   0.79664208  -0.18209594    2.3613428    35028.505 
 5240000   0.80228904   -0.1827481    2.3673382    34978.523 
 5250000   0.79848379  -0.17498419    2.3463962    34960.864 
 5260000   0.80038105  -0.17582374    2.3743131    35069.178 
 5270000   0.79773652  -0.17110899    2.3635988    35069.172 
 5280000    0.8002269  -0.17679898    2.3683926    35025.589 
 5290000   0.80415189  -0.16909578    2.3775758    35093.099 
 5300000   0.79648336  -0.17130656    2.3687808    35118.352 
 5310000   0.80412617  -0.17358136    2.3828673     35113.88 
 5320000   0.80157329  -0.17650969    2.3772972    35114.675 
 5330000   0.79972805  -0.17711421    2.3474267    34937.402 
 5340000   0.80425472  -0.17119591    2.3618478    34939.321 
 5350000   0.79978266  -0.17026998    2.3658269    35050.144 
 5360000   0.80045995  -0.17299138    2.3566879    34997.721 
 5370000   0.79499055  -0.17947497    2.3550994    35041.639 
 5380000   0.79977411  -0.17297967     2.361356     34988.47 
 5390000   0.79304281  -0.17098572    2.3585817    35035.215 
 5400000   0.79892106  -0.18075553    2.3589915    35009.127 
 5410000   0.79270933  -0.17525841    2.3559399    35013.935 
 5420000   0.80082391  -0.17445655    2.3599826    35015.895 
 5430000   0.79756461  -0.17938469    2.3768942    35050.948 
 5440000   0.79422818  -0.16839885    2.3468119    34980.067 
 5450000   0.80521691  -0.16847142    2.3731068    35061.059 
 5460000   0.80062997  -0.17732773    2.3639936    34970.276 
 5470000   0.79465581  -0.18143771    2.3741508     35100.27 
 5480000    0.8007135  -0.17034307    2.3745263    35041.454 
 5490000   0.80112103  -0.17402092    2.3896485    35150.477 
 5500000   0.79511205  -0.17149724     2.347563    34957.757 
 5510000   0.79416984  -0.17261378    2.3527284    34976.097 
 5520000   0.79584441  -0.17306781    2.3487807    35002.848 
 5530000   0.80306707  -0.17378011     2.378144     35093.45 
 5540000   0.80414723  -0.17558843     2.384461    35100.334 
 5550000   0.79455432  -0.16858343    2.3640708    35035.173 
 5560000   0.80709993   -0.1721272    2.3638707    35002.375 
 5570000   0.80120407  -0.18375504    2.3612013    35047.804 
 5580000    0.8031065  -0.17146035    2.3623274    35052.974 
 5590000   0.79778747  -0.17143986    2.3587692    35045.821 
 5600000   0.80597775  -0.18286512    2.3634302    34957.631 
 5610000   0.79948159  -0.17302531    2.3645126    35039.242 
 5620000   0.80337999  -0.17361893    2.3713055    35059.062 
 5630000   0.80537716  -0.19216091    2.3856981     35115.09 
 5640000   0.80572673  -0.17446288    2.3768481    35046.116 
 5650000   0.80047512  -0.18247449    2.3552408    34973.361 
 5660000   0.80101584  -0.17641698    2.3670847    35038.885 
 5670000   0.79514255  -0.17884635    2.3575917    34995.675 
 5680000    0.8051624  -0.17597101    2.3611925    34960.459 
 5690000   0.79884417  -0.17939259    2.3576044    34968.531 
 5700000   0.79855359  -0.16808853    2.3625345    35069.267 
 5710000   0.79766114  -0.17608619    2.3897976     35144.97 
 5720000   0.79671714  -0.18109573    2.3599251    35024.523 
 5730000   0.79892256  -0.17633541    2.3701453    35038.618 
 5740000   0.80263243  -0.17835043    2.3530516    34916.938 
 5750000   0.79620962  -0.17816408    2.3719999     35121.84 
 5760000   0.79967484  -0.17314494    2.3784375     35105.41 
 5770000   0.80403346  -0.17587373    2.3551016    34918.584 
 5780000   0.80018006  -0.17500024    2.3829661    35065.121 
 5790000   0.80472192  -0.16298212    2.3840087    35057.565 
 5800000      0.80557  -0.17770364     2.375932    35082.664 
 5810000    0.7997793  -0.16194434    2.3696571    35033.283 
 5820000   0.80148456  -0.16936322    2.3746242    35075.517 
 5830000   0.79926115  -0.17501635    2.3721946     35071.48 
 5840000   0.79582484  -0.16990921    2.3382591     34904.97 
 5850000   0.79844537  -0.18074985     2.354588      35041.4 
 5860000   0.79365859  -0.17467835    2.3549043    34995.538 
 5870000   0.80318967  -0.17019117    2.3771778    35057.268 
 5880000   0.79966385  -0.17495308    2.3618762     34989.26 
 5890000   0.79877642   -0.1697815    2.3693185     35046.69 
 5900000   0.80377429  -0.16861612    2.3840496    35085.744 
 5910000   0.79953456  -0.17811918    2.3620637    35009.094 
 5920000   0.80583686   -0.1793446    2.3791971    35038.943 
 5930000   0.80688747  -0.17418082    2.3676504    34993.962 
 5940000   0.79917581  -0.17156808    2.3712277     35098.63 
 5950000   0.79582082  -0.17993476    2.3692312    35132.936 
 5960000   0.79586186   -0.1761253    2.3657358      35078.4 
 5970000   0.80557286  -0.17506761      2.37123    35005.252 
 5980000   0.80331431  -0.17740435     2.377147    35085.133 
 5990000   0.80014842  -0.17543807    2.3745564    35065.228 
 6000000   0.80078724  -0.16995282    2.3729521    35108.339 
 6010000   0.80048046  -0.17067654    2.3651753     35059.72 
 6020000   0.80547515  -0.17313704    2.3948228    35185.347 
 6030000   0.79839625   -0.1787623    2.3772336    35106.979 
 6040000   0.80824296  -0.18378267    2.3889589    35096.689 
 6050000   0.80332489  -0.18530153    2.3840513    35073.699 
 6060000   0.79876475  -0.17732195    2.3731526    35053.662 
 6070000   0.80125478  -0.17120618    2.3659568    35038.901 
 6080000   0.80104405  -0.16663853    2.3798714     35099.21 
 6090000   0.80900377  -0.17204434    2.3793221    35038.451 
 6100000   0.79732299  -0.18387707    2.3647952    35071.688 
 6110000   0.80523461  -0.18184325    2.3636876    35012.299 
 6120000   0.80472635  -0.17823937    2.3846283    35094.117 
 6130000   0.79741205  -0.17797089    2.3732064    35114.474 
 6140000   0.80567556  -0.17477942     2.373078    35021.836 
 6150000   0.79657994  -0.17663428    2.3568512    34983.247 
 6160000   0.80352511  -0.18255911    2.3711777    35008.999 
 6170000   0.79904645  -0.16481458    2.3639653    35051.688 
 6180000   0.80168151  -0.17358174    2.3451525    34874.813 
 6190000   0.80112256  -0.17663858    2.3797656    35089.618 
 6200000   0.79731416  -0.18506137    2.3681516    35070.366 
 6210000     0.795215  -0.17133775     2.349669    34965.638 
 6220000   0.80166394  -0.17271403    2.3591365    34985.277 
 6230000    0.7937268  -0.17594477    2.3642946    35067.366 
 6240000   0.79525416  -0.16654876    2.3565703     35034.91 
 6250000   0.79825011  -0.17717717    2.3909153     35143.66 
 6260000   0.80099572  -0.17468592    2.3682094     35039.07 
 6270000   0.79990455  -0.17454613    2.3529987     34951.03 
 6280000   0.79836629   -0.1722595    2.3593634    34972.649 
 6290000    0.8079941  -0.17102778    2.3774717    35021.899 
 6300000   0.79481593  -0.17748721    2.3598526    35032.031 
 6310000   0.79744415  -0.17288867    2.3624454    35062.393 
 6320000   0.79696009  -0.17104331    2.3727462    35088.483 
 6330000   0.79391592  -0.17963099    2.3660227    35120.123 
 6340000   0.80850215   -0.1815956     2.373254    34997.923 
 6350000   0.80132912  -0.18637327    2.3667709    35004.487 
 6360000   0.79959233  -0.16635989    2.3703259    35073.259 
 6370000   0.79646801  -0.17137574    2.3648927    35086.723 
 6380000   0.79953099  -0.17983552    2.3663531    35023.002 
 6390000   0.79700395  -0.16676281    2.3648895    35062.883 
 6400000   0.79676734  -0.17146835    2.3689869     35100.37 
 6410000   0.80584976  -0.17511481    2.3806739    35090.235 
 6420000   0.79309596   -0.1722568    2.3672962    35110.185 
 6430000   0.80101292  -0.17680314    2.3792009    35145.324 
 6440000   0.79736233  -0.18247473    2.3867936    35154.779 
 6450000   0.80204143  -0.18015947    2.3622728    35012.627 
 6460000   0.80176013  -0.17996849    2.3671647    35054.421 
 6470000   0.79627472  -0.16827531    2.3602558    35019.204 
 6480000   0.79181852  -0.18038339    2.3592062    35054.047 
 6490000   0.79914348  -0.16402985    2.3595224    34997.847 
 6500000    0.8007211  -0.18215661    2.3623209    35038.308 
 6510000   0.79718861  -0.17280692    2.3469374    34992.268 
 6520000   0.79844635  -0.17761549     2.363334    35008.236 
 6530000   0.80076661   -0.1775654    2.3533835    34921.456 
 6540000   0.79448013  -0.17695923    2.3486071    34953.914 
 6550000   0.79650968  -0.17271483    2.3601128    35029.599 
 6560000   0.79573208  -0.16733965    2.3574965    35016.134 
 6570000   0.80019058  -0.18260311    2.3449308    34910.549 
 6580000   0.80175833  -0.17489573    2.3560957    34974.685 
 6590000   0.80397302  -0.16716455    2.3710035    35044.705 
 6600000   0.79827714   -0.1786539    2.3734262    35087.264 
 6610000   0.79300182  -0.17402625    2.3383825    34928.892 
 6620000   0.79832484   -0.1774665    2.3573523    35002.447 
 6630000   0.79344118  -0.17311098    2.3600684     35012.09 
 6640000   0.79573343  -0.16993931    2.3726265    35077.746 
 6650000   0.79690231  -0.17391444     2.363422    35025.428 
 6660000   0.80691044   -0.1828665    2.3629813    34947.412 
 6670000   0.79555937  -0.17436197    2.3496543    34963.019 
 6680000   0.80175081  -0.17767741    2.3782954    35086.144 
 6690000   0.79597219  -0.17553719    2.3582267     35022.16 
 6700000   0.80368955   -0.1749736    2.3788677    35049.757 
 6710000   0.79964242  -0.17203545    2.3760727    35063.274 
 6720000   0.80258718   -0.1711586    2.3604881    34956.246 
 6730000   0.80054456  -0.16854798    2.3649543     35012.29 
 6740000   0.79788479  -0.17242797    2.3846364    35118.323 
 6750000    0.7996942  -0.17430252    2.3664001    35056.659 
 6760000   0.79641624  -0.17565036    2.3704545    35082.073 
 6770000   0.79883771  -0.18356609    2.3431455    34907.139 
 6780000   0.79854661  -0.18084913    2.3699752    35063.829 
 6790000   0.79493238  -0.17555337    2.3570037    35029.699 
 6800000   0.80096219  -0.17633258    2.3582899    34989.493 
 6810000   0.80286253  -0.18047308    2.3618232    34972.113 
 6820000   0.80166455  -0.17239186    2.3700453    35053.773 
 6830000   0.80423328  -0.17776895    2.3851941     35112.51 
 6840000   0.80223627  -0.17488094    2.3551341    34961.979 
 6850000   0.79815263  -0.18144762     2.368356    35015.715 
 6860000   0.79552725  -0.16358218    2.3491065    34991.328 
 6870000   0.79475752   -0.1770443    2.3674015    35107.557 
 6880000   0.79835171  -0.18091395    2.3830217    35141.918 
 6890000    0.7949384  -0.18144045    2.3619585    35043.361 
 6900000   0.79640501  -0.17489126    2.3483242    34989.175 
 6910000    0.7913231  -0.17372343    2.3520395    35046.236 
 6920000   0.80345272  -0.17685115    2.3665557    35034.279 
 6930000   0.79224248  -0.17862494    2.3665161    35100.616 
 6940000   0.79984257  -0.18906907    2.3498297    34945.027 
 6950000   0.79811982  -0.17248869     2.350447    35008.085 
 6960000    0.8068395  -0.17785548    2.3748968    35071.383 
 6970000   0.80123231  -0.17726975    2.3686942    34984.151 
 6980000   0.79634818  -0.17272868    2.3466509     34989.34 
 6990000   0.80483287  -0.17506166    2.3576186    34959.267 
 7000000   0.79793351  -0.17225409    2.3482683     34962.75 
Loop time of 4403.86 on 216 procs for 5000000 steps with 28425 atoms

Performance: 490479.066 tau/day, 1135.368 timesteps/s
99.9% CPU use with 216 MPI tasks x 1 OpenMP threads

MPI task timing breakdown:
Section |  min time  |  avg time  |  max time  |%varavg| %total
---------------------------------------------------------------
Pair    | 420.94     | 465.94     | 547.03     | 109.9 | 10.58
Bond    | 8.199      | 9.4482     | 11.482     |  19.2 |  0.21
Neigh   | 545.49     | 595.44     | 627.94     |  56.7 | 13.52
Comm    | 932.3      | 1074.8     | 1205.8     | 170.2 | 24.41
Output  | 2.1241     | 2.1284     | 2.1694     |   0.2 |  0.05
Modify  | 1877.2     | 1992.4     | 2079.2     |  95.1 | 45.24
Other   |            | 263.7      |            |       |  5.99

Nlocal:    131.597 ave 191 max 111 min
Histogram: 22 50 92 25 9 6 3 5 1 3
Nghost:    965.949 ave 1153 max 888 min
Histogram: 13 65 50 40 22 10 9 5 1 1
Neighs:    4754.07 ave 8575 max 3680 min
Histogram: 33 95 53 12 7 5 4 2 2 3

Total # of neighbors = 1026879
Ave neighs/atom = 36.1259
Ave special neighs/atom = 0.612137
Neighbor list builds = 693772
Dangerous builds = 25
System init for write_restart ...
Setting atom values ...
  9000 settings made for charge
Setting atom values ...
  9000 settings made for charge
Setting atom values ...
  4275 settings made for charge
Setting atom values ...
  1425 settings made for charge
System init for write_data ...
PPPM initialization ...
  using 12-bit tables for long-range coulomb (src/kspace.cpp:332)
  G vector (1/distance) = 1.24689
  grid = 125 125 125
  stencil order = 5
  estimated absolute RMS force accuracy = 0.000119229
  estimated relative force accuracy = 0.000119229
  using double precision FFTW3
  3d grid and FFT values/proc = 19683 9625
WARNING: Neighbor exclusions used with KSpace solver may give inconsistent Coulombic energies (src/neighbor.cpp:486)
Neighbor list info ...
  update every 1 steps, delay 0 steps, check yes
  max neighbors/atom: 2000, page size: 100000
  master list distance cutoff = 2.8
  ghost atom cutoff = 2.8
  binsize = 1.4, bins = 24 24 24
  2 neighbor lists, perpetual/occasional/extra = 2 0 0
  (1) pair lj/cut, perpetual
      attributes: half, newton on
      pair build: half/bin/newton
      stencil: half/bin/3d/newton
      bin: standard
  (2) pair coul/long, perpetual, skip from (1)
      attributes: half, newton on
      pair build: skip
      stencil: none
      bin: none
PPPM initialization ...
  using 12-bit tables for long-range coulomb (src/kspace.cpp:332)
  G vector (1/distance) = 1.24689
  grid = 125 125 125
  stencil order = 5
  estimated absolute RMS force accuracy = 0.000119229
  estimated relative force accuracy = 0.000119229
  using double precision FFTW3
  3d grid and FFT values/proc = 19683 9625
WARNING: Neighbor exclusions used with KSpace solver may give inconsistent Coulombic energies (src/neighbor.cpp:486)
Neighbor list info ...
  update every 1 steps, delay 0 steps, check yes
  max neighbors/atom: 2000, page size: 100000
  master list distance cutoff = 2.8
  ghost atom cutoff = 2.8
  binsize = 1.4, bins = 24 24 24
  2 neighbor lists, perpetual/occasional/extra = 2 0 0
  (1) pair lj/cut, perpetual
      attributes: half, newton on
      pair build: half/bin/newton
      stencil: half/bin/3d/newton
      bin: standard
  (2) pair coul/long, perpetual, skip from (1)
      attributes: half, newton on
      pair build: skip
      stencil: none
      bin: none
Setting up Verlet run ...
  Unit style    : lj
  Current step  : 7000000
  Time step     : 0.005
Per MPI rank memory allocation (min/avg/max) = 16.67 | 17.18 | 17.81 Mbytes
Step Temp Press TotEng Volume 
 7000000   0.79793351   0.87449842     6.559696     34962.75 
 7010000   0.79125566  -0.42067875    2.8045839     34962.75 
 7020000   0.80449801   -0.2781005    2.8220604     34962.75 
 7030000   0.79811945  -0.30096439    2.8089979     34962.75 
 7040000   0.80347472  -0.35055653    2.8058655     34962.75 
 7050000   0.80017824   -0.4011192    2.8032671     34962.75 
 7060000   0.79783078  -0.27668056    2.8034728     34962.75 
 7070000   0.80129813  -0.29797442     2.807757     34962.75 
 7080000   0.79404912  -0.36897094     2.796398     34962.75 
 7090000   0.79808116   -0.3022839     2.800569     34962.75 
 7100000   0.79642338  -0.32927579    2.7956012     34962.75 
 7110000   0.80303419  -0.30275665      2.80648     34962.75 
 7120000   0.79850214   -0.3367894    2.7949313     34962.75 
 7130000   0.79469268  -0.33092172    2.7921172     34962.75 
 7140000   0.80431839  -0.31547528    2.7972233     34962.75 
 7150000   0.80418998  -0.29799761    2.7988683     34962.75 
 7160000   0.80063605  -0.32947572    2.8041155     34962.75 
 7170000   0.79482413  -0.32868524    2.7984096     34962.75 
 7180000   0.79883137  -0.33245363     2.787828     34962.75 
 7190000   0.79471749  -0.31971361    2.7914443     34962.75 
 7200000   0.79614017  -0.32662377     2.788859     34962.75 
 7210000   0.80559268  -0.32947233    2.8093589     34962.75 
 7220000   0.80228177  -0.34961172    2.7983303     34962.75 
 7230000   0.79958705  -0.35095754    2.7900464     34962.75 
 7240000   0.80109607  -0.23330882    2.8000859     34962.75 
 7250000   0.79954933  -0.29872672     2.801651     34962.75 
 7260000    0.8001261  -0.32375276    2.7942835     34962.75 
 7270000   0.80179606  -0.28744941    2.8043788     34962.75 
 7280000   0.80051728  -0.28430943    2.8003185     34962.75 
 7290000   0.80471446  -0.31113369    2.7955348     34962.75 
 7300000   0.80379775  -0.27535597    2.7975562     34962.75 
 7310000   0.80411805   -0.3325015     2.796512     34962.75 
 7320000   0.80179839  -0.35308456    2.7856547     34962.75 
 7330000   0.80387705  -0.27039825    2.8066016     34962.75 
 7340000   0.79605299  -0.27701226    2.7913602     34962.75 
 7350000   0.80257461  -0.30333158    2.7954241     34962.75 
 7360000   0.79370611  -0.28633485    2.7931149     34962.75 
 7370000   0.79852158   -0.3100795    2.7959538     34962.75 
 7380000   0.80464053  -0.33779241    2.7960633     34962.75 
 7390000   0.79749726  -0.29279647     2.788267     34962.75 
 7400000   0.80547079  -0.31202158    2.8127317     34962.75 
 7410000   0.80968639  -0.29176344    2.8108707     34962.75 
 7420000    0.8029302  -0.33160386    2.8006627     34962.75 
 7430000   0.79319521  -0.26002311    2.7821083     34962.75 
 7440000   0.79675765  -0.29304724    2.7924823     34962.75 
 7450000   0.79896219  -0.31427095    2.7946015     34962.75 
 7460000   0.79550028  -0.32176808    2.7929903     34962.75 
 7470000   0.80911232  -0.34965426    2.8086747     34962.75 
 7480000   0.79696996  -0.30885012    2.7846681     34962.75 
 7490000   0.80436444  -0.31229647    2.8048434     34962.75 
 7500000   0.80487319  -0.36663936    2.8015309     34962.75 
 7510000   0.80284325    -0.227022    2.8081767     34962.75 
 7520000   0.80237235  -0.24683988     2.801746     34962.75 
 7530000   0.80167185  -0.31233311    2.7998887     34962.75 
 7540000   0.79504052   -0.2851716    2.7853069     34962.75 
 7550000   0.80004894   -0.3366185    2.7976223     34962.75 
 7560000   0.80195319  -0.31961478    2.7986623     34962.75 
 7570000   0.79739821  -0.31721142    2.7859764     34962.75 
 7580000   0.80605356  -0.31009259    2.8046747     34962.75 
 7590000   0.79789321  -0.30265093    2.7977864     34962.75 
 7600000   0.79940434  -0.30020806    2.7933155     34962.75 
 7610000   0.79682525  -0.32475252    2.7952776     34962.75 
 7620000   0.79836365  -0.29795565     2.792697     34962.75 
 7630000   0.81302405  -0.26719618    2.8160653     34962.75 
 7640000   0.80275954  -0.37696774    2.7964007     34962.75 
 7650000   0.79606695  -0.38766598    2.7738841     34962.75 
 7660000   0.80161416  -0.31610669    2.7981017     34962.75 
 7670000   0.80501495  -0.31337901    2.8002508     34962.75 
 7680000   0.80414805   -0.3523934    2.7927044     34962.75 
 7690000   0.80872694  -0.25251368    2.8106734     34962.75 
 7700000   0.79588452  -0.30442817    2.7894835     34962.75 
 7710000   0.79523713  -0.32646814    2.7922814     34962.75 
 7720000   0.79769068  -0.29165471    2.7879419     34962.75 
 7730000   0.80098913  -0.32280301    2.7947019     34962.75 
 7740000   0.80409328  -0.32886015    2.7935786     34962.75 
 7750000   0.80518762  -0.27505788      2.79656     34962.75 
 7760000   0.80125006  -0.34430508    2.7939624     34962.75 
 7770000   0.80209918  -0.36565161    2.7929815     34962.75 
 7780000    0.7952215  -0.37095799    2.7842513     34962.75 
 7790000   0.79938302  -0.36361436    2.7797819     34962.75 
 7800000   0.80235603   -0.3258329    2.7948036     34962.75 
 7810000   0.80400236   -0.2194818    2.8046079     34962.75 
 7820000   0.80315534  -0.31149025    2.7876969     34962.75 
 7830000   0.79564207  -0.32112895    2.7858705     34962.75 
 7840000   0.80700156  -0.34691426    2.7990992     34962.75 
 7850000    0.8007916  -0.27974552    2.7925276     34962.75 
 7860000   0.80322459  -0.26169496    2.8030499     34962.75 
 7870000   0.79715829  -0.27536157    2.7909783     34962.75 
 7880000   0.80074773  -0.28286121    2.8042601     34962.75 
 7890000   0.79705497  -0.29328921    2.7876541     34962.75 
 7900000   0.80337181  -0.29621903    2.7989653     34962.75 
 7910000   0.79856365  -0.33424603    2.7917809     34962.75 
 7920000   0.79494864   -0.3082363    2.7867308     34962.75 
 7930000   0.80060693   -0.3791959    2.7912387     34962.75 
 7940000   0.79743031  -0.29760788    2.7949242     34962.75 
 7950000    0.8086827  -0.21598667     2.801223     34962.75 
 7960000   0.80570587  -0.31970917     2.800019     34962.75 
 7970000   0.80308761  -0.30419499    2.8011029     34962.75 
 7980000   0.79907134  -0.31669477    2.7813288     34962.75 
 7990000   0.80097202  -0.34472049    2.7927681     34962.75 
 8000000   0.79540229  -0.24392052    2.7929956     34962.75 
 8010000   0.79920765  -0.28403301     2.797408     34962.75 
 8020000   0.79840786   -0.3205601    2.7797761     34962.75 
 8030000   0.80276534  -0.30054537    2.7980932     34962.75 
 8040000   0.79712033  -0.36801956     2.778975     34962.75 
 8050000   0.79714418    -0.281004    2.7913585     34962.75 
 8060000    0.7995391  -0.37425862    2.7901159     34962.75 
 8070000    0.7989899  -0.32484487    2.7848721     34962.75 
 8080000   0.80205598  -0.31382518    2.8010586     34962.75 
 8090000   0.80442354  -0.30776149    2.8014931     34962.75 
 8100000   0.80100504  -0.34714194    2.7884066     34962.75 
 8110000   0.80090274  -0.35240142    2.7920422     34962.75 
 8120000   0.79955486  -0.36423484    2.7811985     34962.75 
 8130000   0.80108088  -0.31681331    2.7938556     34962.75 
 8140000   0.80042267  -0.28197808    2.7953557     34962.75 
 8150000   0.79895565  -0.39285366     2.786648     34962.75 
 8160000   0.79901695   -0.3039768    2.7881477     34962.75 
 8170000   0.80113575  -0.33302842    2.7940333     34962.75 
 8180000    0.7966213  -0.32843664    2.7794629     34962.75 
 8190000   0.80294927  -0.27500881    2.8021005     34962.75 
 8200000   0.79612162  -0.32385771    2.7884576     34962.75 
 8210000   0.79438353  -0.36045785    2.7721359     34962.75 
 8220000   0.80201304   -0.2755864     2.797509     34962.75 
 8230000   0.80333087  -0.30038648    2.7935573     34962.75 
 8240000   0.79657476  -0.29849149    2.7996822     34962.75 
 8250000   0.79721045  -0.36978332    2.7884177     34962.75 
 8260000   0.79690638  -0.28462518    2.7928202     34962.75 
 8270000   0.80094286  -0.29842407    2.7898523     34962.75 
 8280000   0.80040176  -0.35959522    2.7932197     34962.75 
 8290000   0.79918829   -0.2619605    2.7946442     34962.75 
 8300000   0.80706664  -0.30625337    2.8039243     34962.75 
 8310000   0.80250528  -0.25211121    2.7992583     34962.75 
 8320000   0.79019917    -0.257973    2.7814107     34962.75 
 8330000   0.79994599  -0.27180963    2.7919861     34962.75 
 8340000   0.79700456  -0.35824613    2.7883773     34962.75 
 8350000   0.79037092  -0.37152952    2.7735427     34962.75 
 8360000   0.79847059  -0.32545563    2.8001388     34962.75 
 8370000   0.79308764   -0.2031699    2.7847037     34962.75 
 8380000   0.80107156  -0.35386791    2.7876544     34962.75 
 8390000   0.80141152  -0.32552383     2.788742     34962.75 
 8400000   0.80485382  -0.31490726    2.8001779     34962.75 
 8410000    0.8063339  -0.27148567    2.7985899     34962.75 
 8420000   0.79808618  -0.29082708    2.7936029     34962.75 
 8430000   0.80281848  -0.26828168    2.7945421     34962.75 
 8440000   0.80293832  -0.32920886    2.8059754     34962.75 
 8450000   0.80206451  -0.30788923    2.7971028     34962.75 
 8460000   0.80203932  -0.29160088     2.806502     34962.75 
 8470000    0.7974138  -0.30218964     2.786536     34962.75 
 8480000   0.79385349   -0.2433364    2.7811074     34962.75 
 8490000   0.79450922  -0.31966936    2.7833239     34962.75 
 8500000   0.79732399  -0.25174156    2.7878669     34962.75 
 8510000   0.80742083  -0.26468202    2.8081573     34962.75 
 8520000     0.803289  -0.35513016     2.786783     34962.75 
 8530000   0.79367279  -0.29501168    2.7870854     34962.75 
 8540000   0.80316918  -0.37171352    2.7939021     34962.75 
 8550000   0.79832702  -0.32341817    2.7826746     34962.75 
 8560000   0.79979301  -0.33995957    2.7884085     34962.75 
 8570000   0.80583913  -0.28975128    2.8075058     34962.75 
 8580000     0.794566  -0.23252328    2.7894313     34962.75 
 8590000   0.80376028  -0.33296352    2.7978974     34962.75 
 8600000   0.79683713  -0.32416468    2.7737771     34962.75 
 8610000   0.80109423  -0.22792528    2.7941553     34962.75 
 8620000   0.80543947  -0.28547207    2.8024578     34962.75 
 8630000   0.80955294  -0.33320799    2.8100369     34962.75 
 8640000   0.79949293  -0.32574745    2.7852278     34962.75 
 8650000   0.79990001  -0.32919029    2.8000153     34962.75 
 8660000   0.79761014  -0.40106292    2.7814762     34962.75 
 8670000   0.79928165   -0.2520149    2.7953001     34962.75 
 8680000   0.79767366  -0.27425403    2.7913564     34962.75 
 8690000   0.79755678  -0.32319444    2.7879832     34962.75 
 8700000   0.79449089  -0.33280313    2.7795735     34962.75 
 8710000    0.8020285  -0.35567862    2.7948347     34962.75 
 8720000   0.79836053  -0.24915509    2.7911012     34962.75 
 8730000   0.79887338   -0.2768932    2.7882423     34962.75 
 8740000   0.80479119  -0.35939088    2.7937475     34962.75 
 8750000   0.79557029  -0.36107188    2.7761008     34962.75 
 8760000   0.80022505  -0.27955367     2.786215     34962.75 
 8770000   0.79838931   -0.2961003    2.7869956     34962.75 
 8780000    0.7908198  -0.29334567    2.7775585     34962.75 
 8790000   0.79997323  -0.27523788    2.7914128     34962.75 
 8800000   0.80097433  -0.31892469     2.787952     34962.75 
 8810000   0.80892327  -0.33223093    2.8057933     34962.75 
 8820000   0.80284421  -0.26777295    2.8002422     34962.75 
 8830000   0.80080699  -0.34167082     2.783615     34962.75 
 8840000   0.79568488  -0.38874334    2.7749578     34962.75 
 8850000   0.80435412  -0.25598996    2.7917384     34962.75 
 8860000   0.79826882  -0.32251166    2.7814208     34962.75 
 8870000   0.80191699  -0.27419202    2.7987881     34962.75 
 8880000   0.80627482   -0.2690151    2.8024711     34962.75 
 8890000   0.80154835  -0.30128614    2.7959737     34962.75 
 8900000   0.80590118  -0.36173103    2.7977264     34962.75 
 8910000   0.79995284  -0.32049551    2.7887966     34962.75 
 8920000   0.80055756  -0.29279024    2.7845697     34962.75 
 8930000   0.80427631  -0.26424054    2.7993471     34962.75 
 8940000   0.80211358  -0.29323493    2.7932943     34962.75 
 8950000   0.80132844  -0.30197611      2.79053     34962.75 
 8960000   0.80560889  -0.30740012    2.7995493     34962.75 
 8970000   0.80801168  -0.29489356    2.7999921     34962.75 
 8980000   0.79646694  -0.27018874     2.780236     34962.75 
 8990000   0.79551548   -0.3631557    2.7725719     34962.75 
 9000000   0.80074026  -0.28510532    2.7896348     34962.75 
 9010000   0.80071356  -0.27948626    2.7971493     34962.75 
 9020000   0.79441731    -0.279797    2.7776886     34962.75 
 9030000   0.80554462  -0.29127124     2.797691     34962.75 
 9040000   0.79471023  -0.29972325    2.7825826     34962.75 
 9050000   0.80881521  -0.29007479    2.8009914     34962.75 
 9060000   0.80500372  -0.30809444    2.7908201     34962.75 
 9070000   0.79358424  -0.26479132    2.7889313     34962.75 
 9080000   0.80185865  -0.26889515    2.7864708     34962.75 
 9090000   0.80669415  -0.31269859    2.7948174     34962.75 
 9100000   0.79994423  -0.30652004    2.7865388     34962.75 
 9110000   0.79471112  -0.30605663    2.7859163     34962.75 
 9120000   0.79706907  -0.31560769     2.786001     34962.75 
 9130000   0.79630454   -0.3295532    2.7828719     34962.75 
 9140000   0.79402171  -0.30304691    2.7821426     34962.75 
 9150000   0.80218401  -0.27090841    2.7933994     34962.75 
 9160000   0.79226947   -0.2974657    2.7772576     34962.75 
 9170000    0.7981504  -0.28633836     2.787533     34962.75 
 9180000   0.80318307  -0.30372661    2.7942875     34962.75 
 9190000   0.80324652  -0.26355239    2.7890787     34962.75 
 9200000   0.80188872  -0.30596996    2.7939597     34962.75 
 9210000   0.79752091  -0.29398887    2.7937073     34962.75 
 9220000   0.79373202    -0.357925    2.7819542     34962.75 
 9230000   0.79946817  -0.27967481    2.7910249     34962.75 
 9240000   0.80738372  -0.35253315    2.8009284     34962.75 
 9250000   0.80110696  -0.34022783    2.7996538     34962.75 
 9260000   0.79423639  -0.33622455    2.7879789     34962.75 
 9270000   0.80156189  -0.30561154    2.7977202     34962.75 
 9280000   0.79885241  -0.34322344    2.7908651     34962.75 
 9290000    0.8005914  -0.28442303    2.7850554     34962.75 
 9300000   0.79921358  -0.27848621    2.7931342     34962.75 
 9310000     0.803037  -0.35529907    2.7862356     34962.75 
 9320000   0.79724138  -0.31229303    2.7878007     34962.75 
 9330000   0.80188985  -0.24791854    2.8040043     34962.75 
 9340000   0.79612336  -0.33202597    2.7889003     34962.75 
 9350000   0.79353229  -0.28968031    2.7798831     34962.75 
 9360000   0.80530035  -0.32287553    2.7948523     34962.75 
 9370000   0.80099014  -0.34602587    2.7931679     34962.75 
 9380000    0.8031767  -0.30457828     2.796442     34962.75 
 9390000   0.79521879  -0.32232835     2.777354     34962.75 
 9400000   0.80534163  -0.30953591    2.7940223     34962.75 
 9410000   0.79876909  -0.30695184    2.7889699     34962.75 
 9420000   0.79829305  -0.28995349    2.7930945     34962.75 
 9430000   0.79771748  -0.33469176    2.7874215     34962.75 
 9440000   0.80595378  -0.32625219    2.7977288     34962.75 
 9450000   0.80127157  -0.29671012    2.7825177     34962.75 
 9460000   0.80064201  -0.34281811    2.7942682     34962.75 
 9470000   0.80536506   -0.3302278    2.7908191     34962.75 
 9480000   0.80345311  -0.35099402    2.7871135     34962.75 
 9490000   0.80128186   -0.3183101     2.803783     34962.75 
 9500000   0.80035537  -0.29286582    2.7916458     34962.75 
 9510000   0.80463672  -0.25886457     2.802795     34962.75 
 9520000   0.80066863  -0.32930732    2.7934662     34962.75 
 9530000    0.8031917  -0.32508909    2.7967962     34962.75 
 9540000   0.79506201  -0.34257475    2.7762453     34962.75 
 9550000   0.80034778  -0.30009847    2.7810272     34962.75 
 9560000    0.7981633  -0.28120638     2.794763     34962.75 
 9570000   0.79692832  -0.29190703    2.7898139     34962.75 
 9580000   0.80166603  -0.31270016    2.7963755     34962.75 
 9590000   0.80108741  -0.25707753    2.7890392     34962.75 
 9600000   0.79905246  -0.28818733    2.7885637     34962.75 
 9610000   0.80580854  -0.35096139    2.8002641     34962.75 
 9620000   0.80465729  -0.33401788    2.7940951     34962.75 
 9630000   0.79969644  -0.32021875    2.7877209     34962.75 
 9640000   0.79330635  -0.31239057    2.7845816     34962.75 
 9650000   0.80588709  -0.27144025    2.8058936     34962.75 
 9660000   0.79690086  -0.30493079    2.7882896     34962.75 
 9670000   0.80096634   -0.3367774    2.7933386     34962.75 
 9680000   0.79824451  -0.23220158    2.7898096     34962.75 
 9690000    0.7984334  -0.28069409    2.7870993     34962.75 
 9700000   0.79750837  -0.26844658    2.7851195     34962.75 
 9710000    0.8012117  -0.27489773    2.7896172     34962.75 
 9720000   0.79699453   -0.3101361    2.7766801     34962.75 
 9730000   0.79605276  -0.29706572    2.7820445     34962.75 
 9740000   0.79686326  -0.25638715    2.7846235     34962.75 
 9750000   0.79795466  -0.31298087    2.7749916     34962.75 
 9760000   0.80338539   -0.3160811    2.7900304     34962.75 
 9770000   0.80268206  -0.30565516    2.7885747     34962.75 
 9780000   0.80633315  -0.29737599    2.7964521     34962.75 
 9790000   0.80216469  -0.30188167    2.7966638     34962.75 
 9800000   0.80288138  -0.37154097    2.7873178     34962.75 
 9810000    0.7943496  -0.21735355     2.790038     34962.75 
 9820000   0.79145017  -0.29545871     2.782242     34962.75 
 9830000   0.79848568  -0.37623723     2.777454     34962.75 
 9840000   0.79921763  -0.27523487    2.7851786     34962.75 
 9850000   0.79614106  -0.34219433     2.783114     34962.75 
 9860000   0.79952486   -0.2568129     2.786262     34962.75 
 9870000   0.79759762  -0.28709684    2.7859696     34962.75 
 9880000   0.79894217  -0.28135826    2.7942353     34962.75 
 9890000   0.80016871  -0.27354414    2.7985632     34962.75 
 9900000   0.79959717   -0.3274154    2.7810146     34962.75 
 9910000   0.79952337  -0.31517383    2.7841107     34962.75 
 9920000   0.79405563  -0.34091851    2.7774802     34962.75 
 9930000   0.79911459  -0.31252276     2.787755     34962.75 
 9940000   0.79987875  -0.28943799    2.7910782     34962.75 
 9950000   0.80104345  -0.32425551    2.7980675     34962.75 
 9960000   0.80175862  -0.31870653    2.7871764     34962.75 
 9970000   0.80013321  -0.30113106    2.7960584     34962.75 
 9980000   0.80237417   -0.3093854    2.7873132     34962.75 
 9990000   0.79898504  -0.26866792    2.8008885     34962.75 
10000000   0.79636482  -0.26825944    2.7851283     34962.75 
10010000    0.7990275  -0.31392742    2.7932769     34962.75 
10020000   0.80057976  -0.32981324     2.786596     34962.75 
10030000   0.79684789  -0.35650072    2.7823223     34962.75 
10040000   0.80230959  -0.29992534    2.7993417     34962.75 
10050000   0.81233751  -0.33955176    2.8161557     34962.75 
10060000   0.80264664  -0.31405932    2.7969544     34962.75 
10070000   0.79900671  -0.28163038    2.7893019     34962.75 
10080000   0.79435624   -0.3178734     2.777293     34962.75 
10090000   0.80235557  -0.28691344    2.7983934     34962.75 
10100000   0.80098919  -0.23516095    2.7968416     34962.75 
10110000   0.79827504  -0.26806662    2.7820829     34962.75 
10120000   0.79482564  -0.27315608    2.7847572     34962.75 
10130000   0.80118747  -0.34013545    2.7869616     34962.75 
10140000   0.79588623  -0.30338814     2.779862     34962.75 
10150000   0.79924723  -0.31224868    2.7929289     34962.75 
10160000   0.80034631  -0.35542589    2.7860012     34962.75 
10170000   0.79588236  -0.27519482     2.788209     34962.75 
10180000   0.80133014  -0.33141742    2.7872632     34962.75 
10190000   0.79801794  -0.33463358    2.7888644     34962.75 
10200000   0.80120544  -0.32445313    2.7917961     34962.75 
10210000   0.80438009  -0.27650527    2.7982689     34962.75 
10220000   0.80653592  -0.32964478    2.7957938     34962.75 
10230000   0.80478264  -0.27191044    2.7979406     34962.75 
10240000    0.7985641  -0.29853162     2.783168     34962.75 
10250000   0.80302743   -0.3592657    2.7883165     34962.75 
10260000   0.79999617  -0.33111036     2.788974     34962.75 
10270000   0.80547714   -0.2990089    2.7946157     34962.75 
10280000   0.80085144  -0.31746581    2.7823218     34962.75 
10290000   0.79943465  -0.28434204    2.7941439     34962.75 
10300000   0.80116584  -0.33881631     2.786902     34962.75 
10310000   0.79521382  -0.30439784     2.778516     34962.75 
10320000   0.80511899  -0.29880866    2.7894703     34962.75 
10330000   0.79099411  -0.36490498    2.7741629     34962.75 
10340000   0.79231435  -0.27574473    2.7746542     34962.75 
10350000   0.79888922   -0.3415962    2.7794589     34962.75 
10360000   0.80376278  -0.31160645    2.7901915     34962.75 
10370000   0.79865307  -0.36602185    2.7905676     34962.75 
10380000   0.79522623  -0.32005043    2.7840726     34962.75 
10390000   0.80779448  -0.19881567    2.7962968     34962.75 
10400000   0.79635256  -0.29304017    2.7808038     34962.75 
10410000   0.80049458  -0.28844099    2.7882394     34962.75 
10420000   0.79995099  -0.30117575    2.7831068     34962.75 
10430000   0.80185245  -0.34629005    2.7950294     34962.75 
10440000   0.80166836  -0.25143269    2.7962066     34962.75 
10450000    0.8022033  -0.26027721    2.7987007     34962.75 
10460000   0.80784153  -0.26686652    2.7931376     34962.75 
10470000   0.80538038  -0.32087341     2.798302     34962.75 
10480000   0.80065881  -0.27213854    2.7932888     34962.75 
10490000   0.79617741  -0.36669096    2.7735872     34962.75 
10500000   0.79818711  -0.27841069    2.7935489     34962.75 
10510000   0.80371594  -0.26939159    2.7934795     34962.75 
10520000   0.80113927  -0.27346481    2.7943036     34962.75 
10530000    0.8059649  -0.24869351    2.7947015     34962.75 
10540000   0.80702144  -0.32079162    2.8023978     34962.75 
10550000   0.79533688  -0.29920194    2.7848383     34962.75 
10560000   0.79446771  -0.29819096     2.788182     34962.75 
10570000   0.79463977  -0.30589738    2.7784349     34962.75 
10580000   0.80089433  -0.29922945    2.7942554     34962.75 
10590000   0.79719019  -0.34158809    2.7859714     34962.75 
10600000   0.79882774  -0.29377418    2.7814147     34962.75 
10610000   0.79681138  -0.31024562    2.7860941     34962.75 
10620000   0.79988359  -0.34409151     2.786951     34962.75 
10630000   0.80300158  -0.32830458    2.7880404     34962.75 
10640000   0.80100334  -0.32159176    2.7849902     34962.75 
10650000   0.81114608  -0.31114353    2.7919423     34962.75 
10660000   0.80626812  -0.32907894      2.79232     34962.75 
10670000   0.79925462  -0.30657203    2.7825919     34962.75 
10680000   0.80098989  -0.28403384    2.7874494     34962.75 
10690000   0.80484328  -0.28655613     2.801462     34962.75 
10700000   0.79575384   -0.3045476    2.7763934     34962.75 
10710000   0.80007343  -0.26166175    2.7900844     34962.75 
10720000   0.79265285  -0.34414433    2.7799129     34962.75 
10730000   0.80481265  -0.29450786    2.7987187     34962.75 
10740000   0.80101936  -0.31876366    2.7941713     34962.75 
10750000   0.79913097  -0.29280787     2.791454     34962.75 
10760000   0.80031386   -0.3242253    2.7820522     34962.75 
10770000   0.80267252  -0.27970467    2.7912431     34962.75 
10780000   0.79575077  -0.31908397    2.7860514     34962.75 
10790000   0.79368568  -0.23622762    2.7875388     34962.75 
10800000   0.79529665   -0.2790059    2.7854266     34962.75 
10810000   0.80663962  -0.28969288    2.8010935     34962.75 
10820000   0.80060138  -0.21581359    2.7953532     34962.75 
10830000   0.80024674  -0.31335172    2.7848687     34962.75 
10840000   0.79887034  -0.31016213    2.7892966     34962.75 
10850000   0.79621537  -0.36050072    2.7795407     34962.75 
10860000   0.80744909   -0.3192383    2.8077589     34962.75 
10870000    0.8035247  -0.27668758    2.7994329     34962.75 
10880000   0.79600739  -0.31412297    2.7812885     34962.75 
10890000   0.79341086   -0.3159905    2.7810255     34962.75 
10900000   0.79936398  -0.29860772    2.7815918     34962.75 
10910000   0.80111788  -0.24101415    2.7867236     34962.75 
10920000   0.80598919  -0.27031472    2.7938026     34962.75 
10930000   0.80581313  -0.30985133    2.8045212     34962.75 
10940000   0.80094924  -0.27097553    2.7931975     34962.75 
10950000   0.80186275  -0.25800443      2.78747     34962.75 
10960000   0.79783319  -0.27191553    2.7849222     34962.75 
10970000   0.80685703  -0.36281626    2.7937064     34962.75 
10980000   0.80454046  -0.30791519    2.7964158     34962.75 
10990000   0.79808791  -0.29173521    2.7916186     34962.75 
11000000   0.79293268  -0.32311649    2.7826955     34962.75 
11010000    0.7958936  -0.29891777       2.7852     34962.75 
11020000   0.79288084   -0.3220394    2.7789167     34962.75 
11030000   0.80056776  -0.23469896    2.7916122     34962.75 
11040000   0.79791284  -0.29217338     2.782599     34962.75 
11050000   0.79413312  -0.30493224    2.7775385     34962.75 
11060000   0.80781174  -0.26297477    2.8062025     34962.75 
11070000   0.79589498  -0.31125947     2.781821     34962.75 
11080000   0.79988615  -0.31667053    2.7926623     34962.75 
11090000   0.79690232   -0.3815405    2.7799026     34962.75 
11100000   0.80194229  -0.31619771    2.7971773     34962.75 
11110000   0.79502435  -0.22839672    2.7827025     34962.75 
11120000   0.80387928  -0.27225431    2.7889217     34962.75 
11130000   0.80195544  -0.30670539    2.7929385     34962.75 
11140000   0.80156668  -0.29125331     2.788564     34962.75 
11150000   0.79811808  -0.29398391    2.7879014     34962.75 
11160000   0.79656218  -0.30878972    2.7844107     34962.75 
11170000   0.79745453  -0.27666049    2.7937843     34962.75 
11180000   0.79950825  -0.35331469    2.7924895     34962.75 
11190000   0.79561383  -0.29348805    2.7768889     34962.75 
11200000   0.80360229  -0.30090617    2.7888125     34962.75 
11210000   0.79836449  -0.32707041    2.7826868     34962.75 
11220000   0.79849765  -0.30721163     2.785405     34962.75 
11230000   0.80311569  -0.22960321    2.8040441     34962.75 
11240000   0.80167376  -0.25133646    2.7977946     34962.75 
11250000   0.79790083  -0.30513767    2.7854152     34962.75 
11260000   0.79321257  -0.27775835    2.7854828     34962.75 
11270000   0.79629643  -0.30579032    2.7888142     34962.75 
11280000   0.79565628  -0.33396365    2.7863686     34962.75 
11290000   0.80098686  -0.28729484    2.7903654     34962.75 
11300000   0.80201453  -0.20839542    2.7988454     34962.75 
11310000   0.79427332  -0.31868823      2.78048     34962.75 
11320000   0.79949485  -0.25941792    2.7880192     34962.75 
11330000   0.80093582  -0.36537826    2.7898146     34962.75 
11340000   0.80470501  -0.33231243    2.7955383     34962.75 
11350000   0.80109694  -0.27570327    2.7932149     34962.75 
11360000   0.79766159  -0.34902012    2.7844185     34962.75 
11370000   0.80462361  -0.27201548    2.7990115     34962.75 
11380000   0.80067453  -0.32430361    2.7904903     34962.75 
11390000   0.79372996   -0.3020235    2.7803129     34962.75 
11400000   0.80312115  -0.31597474    2.7935813     34962.75 
11410000   0.80188757  -0.34313974    2.7897962     34962.75 
11420000   0.80788935  -0.24360701    2.8044706     34962.75 
11430000   0.79505504   -0.3146146    2.7753618     34962.75 
11440000   0.80224896  -0.32367026    2.7862073     34962.75 
11450000   0.80365131  -0.33354167    2.7830138     34962.75 
11460000   0.79624462  -0.32427104    2.7762904     34962.75 
11470000   0.80065728  -0.26102924    2.7904965     34962.75 
11480000   0.79765862  -0.35994917    2.7813686     34962.75 
11490000    0.7965165  -0.27952668    2.7847585     34962.75 
11500000   0.79759027  -0.29522093    2.7801934     34962.75 
11510000   0.80491511  -0.27820271     2.798936     34962.75 
11520000    0.7960433  -0.38015704    2.7722176     34962.75 
11530000   0.80089582  -0.30645973    2.7889889     34962.75 
11540000   0.79851004  -0.29423062    2.7871369     34962.75 
11550000   0.80190008  -0.30234971    2.7976663     34962.75 
11560000   0.80144558  -0.31815119     2.794484     34962.75 
11570000   0.79413588   -0.3228066    2.7863066     34962.75 
11580000   0.79882642  -0.27145975    2.7833428     34962.75 
11590000   0.79597497  -0.30350755    2.7812513     34962.75 
11600000   0.79331104  -0.30595093    2.7750085     34962.75 
11610000   0.80026146  -0.33330952    2.7889852     34962.75 
11620000   0.80110707  -0.30892884    2.7880511     34962.75 
11630000   0.80445132  -0.23479173    2.7965207     34962.75 
11640000   0.79981235  -0.35376211    2.7844262     34962.75 
11650000   0.79891998  -0.24084149     2.790935     34962.75 
11660000   0.80325697  -0.38448235    2.7897183     34962.75 
11670000   0.79546749  -0.36443587    2.7714101     34962.75 
11680000    0.7986734  -0.32461552    2.7921905     34962.75 
11690000   0.80003779  -0.30321581    2.7919975     34962.75 
11700000    0.7971245   -0.2839405     2.785155     34962.75 
11710000   0.80392922  -0.28158225    2.7935971     34962.75 
11720000   0.80656144  -0.23966976     2.800369     34962.75 
11730000   0.80443639  -0.31289968    2.7977524     34962.75 
11740000   0.79901511  -0.28917654    2.7910158     34962.75 
11750000   0.79413271  -0.33285776    2.7839467     34962.75 
11760000   0.79782958  -0.24766891    2.7910159     34962.75 
11770000   0.80385625   -0.2572112    2.8052026     34962.75 
11780000   0.79281722  -0.27029117    2.7817756     34962.75 
11790000   0.80506587  -0.25646336    2.8073693     34962.75 
11800000   0.79514719  -0.31771695    2.7743685     34962.75 
11810000   0.79703161  -0.28689202    2.7886714     34962.75 
11820000   0.80299068  -0.24990185    2.8060589     34962.75 
11830000   0.79480306  -0.33336195    2.7842824     34962.75 
11840000   0.79371947  -0.29980178    2.7852572     34962.75 
11850000   0.79962191  -0.34016197    2.7963743     34962.75 
11860000   0.80285405  -0.28463011    2.7889433     34962.75 
11870000   0.80210502  -0.30565195    2.7838293     34962.75 
11880000   0.80157202  -0.33306688    2.7889183     34962.75 
11890000   0.79891345  -0.29523579    2.7959301     34962.75 
11900000   0.79818046  -0.32589355    2.7850418     34962.75 
11910000   0.80596299  -0.35540681     2.805988     34962.75 
11920000   0.79919229  -0.33173611     2.784637     34962.75 
11930000   0.80291203  -0.30746061    2.7946328     34962.75 
11940000   0.80065783  -0.28211544     2.792972     34962.75 
11950000   0.80035362  -0.27332414    2.7873879     34962.75 
11960000   0.79489537  -0.34842625    2.7744161     34962.75 
11970000    0.8012094  -0.34291418    2.7889156     34962.75 
11980000   0.80279802   -0.2835704    2.7949305     34962.75 
11990000    0.7926498  -0.27024799    2.7737519     34962.75 
12000000   0.79625801  -0.29052208      2.77848     34962.75 
Loop time of 79589.5 on 216 procs for 5000000 steps with 28425 atoms

Performance: 27139.245 tau/day, 62.822 timesteps/s
99.8% CPU use with 216 MPI tasks x 1 OpenMP threads

MPI task timing breakdown:
Section |  min time  |  avg time  |  max time  |%varavg| %total
---------------------------------------------------------------
Pair    | 1000.1     | 1161.8     | 1470       | 219.8 |  1.46
Bond    | 8.8873     | 11.268     | 14.366     |  33.0 |  0.01
Kspace  | 72627      | 73510      | 73872      |  90.1 | 92.36
Neigh   | 619.55     | 652.87     | 681.77     |  49.4 |  0.82
Comm    | 1410.9     | 1737.1     | 2503.6     | 474.0 |  2.18
Output  | 2.8443     | 2.8456     | 2.8859     |   0.2 |  0.00
Modify  | 1801.8     | 2072.2     | 2271.4     | 210.2 |  2.60
Other   |            | 441.2      |            |       |  0.55

Nlocal:    131.597 ave 207 max 111 min
Histogram: 46 91 41 10 9 6 7 4 1 1
Nghost:    966.384 ave 1207 max 873 min
Histogram: 29 49 55 29 35 8 7 1 2 1
Neighs:    4908.01 ave 10882 max 3398 min
Histogram: 53 93 32 14 7 7 5 3 1 1

Total # of neighbors = 1060130
Ave neighs/atom = 37.2957
Ave special neighs/atom = 0.612137
Neighbor list builds = 672591
Dangerous builds = 0
System init for write_restart ...
PPPM initialization ...
  using 12-bit tables for long-range coulomb (src/kspace.cpp:332)
  G vector (1/distance) = 1.24689
  grid = 125 125 125
  stencil order = 5
  estimated absolute RMS force accuracy = 0.000119229
  estimated relative force accuracy = 0.000119229
  using double precision FFTW3
  3d grid and FFT values/proc = 19683 9625
WARNING: Neighbor exclusions used with KSpace solver may give inconsistent Coulombic energies (src/neighbor.cpp:486)
Neighbor list info ...
  update every 1 steps, delay 0 steps, check yes
  max neighbors/atom: 2000, page size: 100000
  master list distance cutoff = 2.8
  ghost atom cutoff = 2.8
  binsize = 1.4, bins = 24 24 24
  2 neighbor lists, perpetual/occasional/extra = 2 0 0
  (1) pair lj/cut, perpetual
      attributes: half, newton on
      pair build: half/bin/newton
      stencil: half/bin/3d/newton
      bin: standard
  (2) pair coul/long, perpetual, skip from (1)
      attributes: half, newton on
      pair build: skip
      stencil: none
      bin: none
Total wall time: 23:39:05
