ITEM: TIMESTEP
0
ITEM: NUMBER OF ATOMS
475
ITEM: BOX BOUNDS pp pp pp
7.1354277009520928e-01 3.3076457229894366e+01
7.1354277009520928e-01 3.3076457229894366e+01
7.1354277009520928e-01 3.3076457229894366e+01
ITEM: ATOMS id mol type x y z 
27017 301 4 5.52145 3.82142 7.22617 
27207 311 4 5.53085 3.80227 7.21676 
27016 301 4 6.01736 4.13396 6.37278 
27208 311 4 6.03158 4.12681 6.37069 
27018 301 4 5.40729 3.8416 8.25498 
27206 311 4 5.40649 3.81318 8.24452 
27205 311 4 5.69184 4.15663 9.1786 
27019 301 4 5.70546 4.18911 9.18353 
27143 308 4 1.0663 6.04246 29.0856 
27446 324 4 3.25152 10.4339 22.237 
27445 324 4 3.97105 11.1438 22.0129 
27448 324 4 1.8549 10.2345 23.6547 
27447 324 4 2.47696 10.1011 22.8379 
27441 324 4 2.29908 11.3197 24.0559 
27440 324 4 2.76154 10.9711 23.2407 
27439 324 4 3.50859 11.4924 22.8281 
27449 324 4 1.55203 10.7983 24.4685 
27141 308 4 0.766441 6.48575 27.1585 
27142 308 4 1.17976 6.30125 28.0896 
27456 324 4 4.44275 12.0405 22.2257 
27444 324 4 3.79317 12.3624 23.2309 
27438 324 4 3.04612 11.8411 23.6434 
27443 324 4 3.33071 12.7111 24.0462 
27455 324 4 4.54022 12.8838 22.8184 
27454 324 4 4.23735 13.4477 23.6321 
27450 324 4 1.6495 11.6416 25.0612 
27451 324 4 2.1212 12.5383 25.274 
27442 324 4 2.58366 12.1897 24.4587 
27452 324 4 2.84073 13.2482 25.0499 
27453 324 4 3.61529 13.5811 24.4489 
27091 305 4 3.4184 20.3026 7.26462 
27028 302 4 3.42729 20.3341 7.27503 
27027 302 4 4.34591 19.9783 7.59356 
27090 305 4 4.33438 19.9487 7.59267 
27092 305 4 2.77193 21.0927 7.09234 
27029 302 4 2.78044 21.1254 7.11005 
27082 305 4 3.59809 21.5117 7.46917 
27022 302 4 3.61102 21.5426 7.47906 
27030 302 4 2.5787 22.1404 7.14282 
27093 305 4 2.5682 22.1073 7.12201 
27021 302 4 4.39375 20.9691 7.72081 
27081 305 4 4.37932 20.9397 7.71934 
27020 302 4 4.44159 21.9598 7.84807 
27077 305 4 4.42426 21.9306 7.846 
27089 305 4 5.27445 20.1259 7.98861 
27038 302 4 5.29018 20.1535 7.98028 
27088 305 4 5.98671 20.7866 8.34633 
27080 305 4 5.20548 21.3586 8.09616 
27026 302 4 5.22433 21.3863 8.08982 
27037 302 4 6.00706 20.8127 8.33158 
27031 302 4 2.87612 23.1069 7.36457 
27094 305 4 2.86181 23.0746 7.34567 
27083 305 4 3.64303 22.5026 7.59583 
27023 302 4 3.65886 22.5334 7.60632 
27032 302 4 3.59301 23.7662 7.71586 
27095 305 4 3.57407 23.7354 7.70339 
27035 302 4 6.10274 22.7943 8.58609 
27024 302 4 4.48943 22.9506 7.97533 
27078 305 4 4.4692 22.9216 7.97266 
27085 305 4 5.43012 23.5587 8.42738 
27034 302 4 5.4559 23.5856 8.42111 
27079 305 4 5.25042 22.3496 8.22283 
27025 302 4 5.27217 22.377 8.21708 
27033 302 4 4.53727 23.9414 8.10258 
27084 305 4 4.51414 23.9126 8.09932 
27086 305 4 6.07659 22.7686 8.59965 
27276 315 4 1.44523 27.6014 9.41842 
27220 312 4 1.44483 27.588 9.42706 
27273 315 4 1.0584 25.5066 10.9876 
27214 312 4 1.35693 25.8723 10.8584 
27275 315 4 2.07881 27.3298 10.1909 
27221 312 4 2.07292 27.3055 10.2001 
27268 315 4 1.4709 26.3265 10.5907 
27222 312 4 2.31119 26.6552 10.9697 
27213 312 4 1.3455 26.6193 10.1937 
27269 315 4 1.03273 26.7815 9.81536 
27274 315 4 2.32156 26.6916 10.9691 
27284 315 4 1.49656 25.0516 11.763 
27224 312 4 1.48443 25.0003 11.7299 
27223 312 4 2.09579 25.8115 11.5296 
27285 315 4 2.10845 25.8577 11.5445 
27014 301 4 7.55622 5.35554 5.99864 
27209 311 4 6.77451 4.69986 5.93303 
27015 301 4 6.76214 4.69549 5.92347 
27198 311 4 7.56059 5.36786 6.02105 
27006 301 4 6.48175 4.59857 7.12681 
27005 301 4 7.25118 5.20936 6.93974 
27001 301 4 6.94615 5.06318 7.88084 
27191 311 4 6.9355 5.05423 7.89488 
27192 311 4 7.24804 5.21105 6.95796 
27197 311 4 6.48354 4.59052 7.13278 
27193 311 4 7.70001 5.67475 7.72005 
27004 301 4 7.71558 5.67397 7.69377 
27199 311 4 8.17917 5.95183 6.61115 
27013 301 4 8.18683 5.93725 6.57814 
27202 311 4 7.83943 5.98165 9.41906 
27194 311 4 7.38747 5.51794 8.65697 
27003 301 4 7.41054 5.52778 8.63486 
27002 301 4 6.64111 4.917 8.82193 
27195 311 4 6.62296 4.89741 8.83179 
27010 301 4 7.87494 5.99239 9.38889 
27196 311 4 6.171 4.43371 8.0697 
27007 301 4 6.17672 4.45239 8.06791 
27204 311 4 6.31042 4.7406 9.7687 
27009 301 4 7.13016 5.43086 9.8382 
27008 301 4 6.33607 4.77082 9.76303 
27203 311 4 7.09649 5.4086 9.85672 
27394 321 4 7.52474 1.49953 13.2647 
27171 309 4 7.54712 1.52779 13.2364 
27393 321 4 8.40408 2.04597 13.2575 
27170 309 4 8.42471 2.07704 13.2438 
27396 321 4 6.22294 0.933378 14.6736 
27154 309 4 7.29142 1.56298 14.4486 
27385 321 4 7.67587 1.75928 14.2185 
27386 321 4 7.02497 1.4762 14.9229 
27395 321 4 6.72638 1.0923 13.783 
27160 309 4 6.74692 1.10949 13.743 
27161 309 4 6.23852 0.934211 14.6277 
27159 309 4 8.13032 2.04676 14.199 
27384 321 4 8.4779 2.3021 14.4678 
27158 309 4 8.67482 2.50025 14.9047 
27169 309 4 9.14453 2.61006 13.763 
27392 321 4 9.12879 2.58518 13.7633 
27168 309 4 9.51372 2.98403 14.6551 
27391 321 4 9.50469 2.97269 14.6468 
27162 309 4 6.15814 1.04892 15.6534 
27397 321 4 6.14931 1.06536 15.6978 
27398 321 4 6.52521 1.45287 16.5812 
27163 309 4 6.52733 1.42289 16.5455 
27387 321 4 7.1761 1.73595 15.8768 
27156 309 4 7.54154 1.98619 16.1095 
27155 309 4 6.99704 1.5327 15.4038 
27153 309 4 7.83593 2.01647 15.1543 
27381 321 4 7.827 2.01902 15.1723 
27382 321 4 7.97813 2.27877 16.1261 
27157 309 4 8.38043 2.46997 15.8599 
27383 321 4 8.62903 2.56185 15.4216 
27390 321 4 9.43106 3.10467 15.671 
27167 309 4 9.43334 3.09874 15.6809 
27166 309 4 8.92494 2.92346 16.5655 
27389 321 4 8.92761 2.94575 16.5616 
27399 321 4 7.24992 1.99208 17.0871 
27164 309 4 7.24715 1.95591 17.0647 
27165 309 4 8.12474 2.50515 17.0721 
27388 321 4 8.12926 2.53852 17.0799 
27012 301 4 8.48501 6.28475 7.5067 
27200 311 4 8.46451 6.29528 7.54523 
27011 301 4 8.37085 6.30494 8.5355 
27201 311 4 8.34016 6.30619 8.573 
27358 319 4 7.87058 10.6827 29.2305 
27407 322 4 7.85974 10.6255 29.2325 
27401 322 4 8.83821 10.8301 29.261 
27348 319 4 8.85166 10.8753 29.2525 
27345 319 4 10.8138 11.2603 29.2965 
27343 319 4 9.83275 11.0678 29.2745 
27400 322 4 9.81667 11.0347 29.2896 
27404 322 4 10.7951 11.2393 29.3181 
27409 322 4 9.16057 9.21405 29.7947 
27360 319 4 9.15582 9.26223 29.8056 
27361 319 4 10.184 9.20522 29.9131 
27410 322 4 10.1889 9.16867 29.9058 
27411 322 4 11.1175 9.62328 29.8518 
27350 319 4 11.118 9.6473 29.8495 
27408 322 4 8.30803 9.74727 29.5482 
27359 319 4 8.30907 9.80303 29.5557 
27402 322 4 9.48862 10.1244 29.5421 
27349 319 4 9.49429 10.165 29.54 
27344 319 4 10.4754 10.3576 29.562 
27403 322 4 10.4671 10.329 29.5707 
27418 322 4 7.9358 11.6133 28.932 
27406 322 4 9.16626 11.7404 29.0085 
27417 322 4 8.51584 12.4461 28.7273 
27416 322 4 9.44444 12.9007 28.6733 
27356 319 4 8.54751 12.4883 28.6995 
27347 319 4 9.19013 11.7781 28.987 
27355 319 4 9.48154 12.9304 28.636 
27357 319 4 7.95785 11.6656 28.9172 
27405 322 4 10.1447 11.945 29.037 
27346 319 4 10.1712 11.9706 29.009 
27415 322 4 10.4728 12.8553 28.7845 
27354 319 4 10.5097 12.8734 28.7435 
27414 322 4 11.3253 12.3221 29.0309 
27353 319 4 11.3564 12.3326 28.9933 
27087 305 4 6.28031 21.7539 8.56999 
27036 302 4 6.30448 21.7793 8.55332 
27352 319 4 11.7949 11.4529 29.3185 
27413 322 4 11.7736 11.4439 29.3467 
27351 319 4 11.7076 10.47 29.6319 
27412 322 4 11.6975 10.4561 29.6472 
27464 325 4 16.2766 19.1417 30.6539 
27048 303 4 16.2457 19.1387 30.6462 
27465 325 4 16.0979 20.0119 30.1223 
27049 303 4 16.0634 20.0117 30.1203 
27050 303 4 16.3262 20.9829 29.8762 
27466 325 4 16.3631 20.9814 29.874 
27047 303 4 16.8243 18.5979 31.3129 
27475 325 4 16.8514 18.6038 31.3263 
27070 304 4 15.5564 24.9946 5.22423 
27062 304 4 16.7602 24.7824 5.42843 
27071 304 4 16.3656 25.2118 4.61606 
27069 304 4 15.1755 24.6055 6.1048 
27067 304 4 15.9648 23.7468 7.72955 
27060 304 4 16.5598 24.0499 6.98518 
27068 304 4 15.3249 24.1488 7.02181 
27061 304 4 16.1652 24.4793 6.17281 
27184 310 4 21.8747 17.7306 3.45525 
27266 314 4 21.8566 17.7306 3.4691 
27255 314 4 22.2757 17.9468 2.54741 
27265 314 4 21.887 17.2232 4.37105 
27185 310 4 21.8965 17.238 4.3656 
27458 325 4 17.0157 19.7619 30.9167 
27041 303 4 16.9853 19.7585 30.909 
27457 325 4 17.7548 20.3822 31.1795 
27039 303 4 17.7248 20.3782 31.1718 
27052 303 4 17.8054 22.2223 30.4018 
27467 325 4 17.0013 21.7903 29.9755 
27469 325 4 18.6582 22.1606 31.0327 
27043 303 4 17.7651 21.3003 30.7868 
27460 325 4 17.7981 21.3021 30.7896 
27459 325 4 17.059 20.6818 30.5267 
27042 303 4 17.0255 20.6805 30.524 
27051 303 4 16.9639 21.792 29.9792 
27053 303 4 18.6253 22.1585 31.0307 
27468 325 4 17.8413 22.2219 30.3996 
27474 325 4 17.6683 18.5425 31.9594 
27046 303 4 17.6443 18.534 31.9418 
27040 303 4 17.6846 19.4561 31.5568 
27463 325 4 17.7116 19.4623 31.5695 
27057 303 4 18.4858 18.9643 32.3644 
27473 325 4 18.5084 18.9741 32.3836 
27462 325 4 18.4507 20.0826 31.8323 
27045 303 4 18.4241 20.0758 31.8196 
27472 325 4 19.1465 19.783 32.4851 
27056 303 4 19.1234 19.7735 32.4674 
27044 303 4 18.4644 20.9979 31.4346 
27461 325 4 18.4939 21.0025 31.4423 
27055 303 4 19.3863 20.7447 32.2233 
27054 303 4 19.204 21.6176 31.6974 
27471 325 4 19.4117 20.7525 32.2368 
27470 325 4 19.233 21.6228 31.7052 
27072 304 4 17.3863 25.1989 4.44323 
27073 304 4 18.345 24.9593 4.75207 
27063 304 4 17.7499 24.6562 5.49644 
27074 304 4 18.9848 24.5573 5.45981 
27059 304 4 17.5495 23.9237 7.05319 
27065 304 4 17.9442 23.4943 7.86556 
27076 304 4 18.7534 23.7114 7.25739 
27058 304 4 17.1549 24.353 6.24081 
27064 304 4 18.1446 24.2268 6.30882 
27075 304 4 19.1343 24.1006 6.37682 
27066 304 4 16.9235 23.5072 8.03839 
27427 323 4 27.2845 7.61462 16.3801 
27375 320 4 27.2942 7.58987 16.3471 
27419 323 4 27.099 9.58333 16.6802 
27421 323 4 27.5098 8.81765 16.1852 
27362 320 4 27.1301 9.55734 16.6672 
27366 320 4 27.2121 8.5736 16.5072 
27423 323 4 27.3492 10.5226 16.4451 
27364 320 4 27.6617 10.1998 16.1152 
27370 320 4 27.6493 11.4351 16.2146 
27432 323 4 27.5994 11.4619 16.2101 
27363 320 4 27.0481 10.5411 16.8273 
27376 320 4 26.611 7.67958 17.1198 
27426 323 4 26.5987 7.70478 17.1504 
27378 320 4 25.8078 9.20958 18.1269 
27436 323 4 25.777 9.23615 18.1404 
27377 320 4 26.067 8.27243 17.7713 
27437 323 4 26.0469 8.2983 17.7947 
27425 323 4 26.438 9.40974 17.4103 
27367 320 4 26.5985 8.91489 17.2193 
27420 323 4 26.8488 8.64406 16.9153 
27435 323 4 25.8614 10.267 18.0949 
27379 320 4 25.9029 10.2399 18.0915 
27368 320 4 26.5165 9.89862 17.3793 
27424 323 4 26.6882 10.349 17.1752 
27380 320 4 26.3269 11.0873 17.6743 
27434 323 4 26.2774 11.1147 17.6702 
27179 310 4 25.1873 16.0156 2.44784 
27259 314 4 25.1814 16.065 2.4199 
27180 310 4 24.7246 16.672 1.79441 
27258 314 4 24.7096 16.7275 1.77935 
27172 310 4 23.5419 16.6268 3.40672 
27248 314 4 23.5342 16.6441 3.39548 
27253 314 4 23.3399 16.2823 4.30729 
27173 310 4 24.3646 16.3212 2.92728 
27251 314 4 24.3578 16.3545 2.90769 
27178 310 4 24.1631 15.9765 3.84414 
27252 314 4 24.1635 15.9927 3.81951 
27190 310 4 25.2091 15.523 3.35819 
27260 314 4 25.2118 15.5576 3.32186 
27261 314 4 24.7928 15.3413 4.24354 
27189 310 4 24.7842 15.3262 4.28155 
27262 314 4 24.0365 15.4741 4.93798 
27188 310 4 24.0264 15.4778 4.9705 
27177 310 4 23.3404 16.2821 4.32358 
27186 310 4 22.3592 16.5817 5.01903 
27187 310 4 23.1388 15.9374 5.24043 
27263 314 4 23.1456 15.9204 5.21911 
27264 314 4 22.3588 16.5606 5.0116 
27302 316 4 23.4601 13.2664 13.1542 
27303 316 4 24.179 12.5893 12.8436 
27304 316 4 25.1342 12.3919 12.4963 
27293 316 4 26.0696 12.727 12.2054 
27291 316 4 24.1151 14.3107 13.0257 
27292 316 4 24.6197 13.4844 12.7751 
27287 316 4 25.565 13.5533 12.456 
27286 316 4 25.0604 14.3795 12.7066 
27294 316 4 26.7345 13.505 12.0488 
27288 316 4 26.0057 14.4484 12.3875 
27295 316 4 26.9509 14.5172 12.0684 
27299 316 4 24.0512 16.032 13.2079 
27289 316 4 25.5011 15.2746 12.6382 
27290 316 4 24.5558 15.2058 12.9573 
27298 316 4 24.9866 16.3671 12.917 
27297 316 4 25.9418 16.1697 12.5697 
27296 316 4 26.6608 15.4926 12.2591 
27301 316 4 23.1699 14.2418 13.3448 
27300 316 4 23.3863 15.2541 13.3645 
27108 306 4 27.3348 14.1334 15.7883 
27107 306 4 26.5632 14.7856 16.0143 
27099 306 4 27.3873 15.3521 16.0072 
27098 306 4 27.3223 16.3317 16.1978 
27105 306 4 26.4332 16.7447 16.3954 
27106 306 4 26.2332 15.7414 16.2365 
27433 323 4 26.9135 11.552 16.9804 
27369 320 4 26.9661 11.5248 16.9874 
27182 310 4 23.0574 17.7758 1.84294 
27256 314 4 23.032 17.814 1.85297 
27174 310 4 23.7435 16.9716 2.48986 
27250 314 4 23.7285 17.0059 2.48366 
27257 314 4 23.9229 17.3677 1.57184 
27181 310 4 23.945 17.3163 1.573 
27183 310 4 22.2996 17.9275 2.53189 
27249 314 4 22.9049 17.2955 2.97145 
27175 310 4 22.9208 17.2772 2.9693 
27254 314 4 22.7106 16.9336 3.88326 
27176 310 4 22.7192 16.9324 3.88616 
27104 306 4 27.1097 17.5267 16.4484 
27335 318 4 25.7193 22.677 11.2956 
27336 318 4 26.3822 23.3286 10.8396 
27337 318 4 26.7383 24.29 10.6954 
27328 318 4 25.9879 24.3873 11.3492 
27338 318 4 26.6923 25.3036 10.9016 
27339 318 4 26.2564 26.0977 11.4029 
27332 318 4 23.7826 23.6658 13.1045 
27326 318 4 24.728 23.6782 12.3031 
27333 318 4 24.2185 22.8716 12.6032 
27334 318 4 24.9273 22.5097 11.9411 
27327 318 4 25.4784 23.5808 11.6493 
27342 318 4 24.0928 25.6407 13.1665 
27325 318 4 24.487 24.582 12.6569 
27330 318 4 24.9965 25.3885 12.3568 
27324 318 4 25.2375 24.4847 12.0031 
27329 318 4 25.7469 25.2912 11.703 
27341 318 4 24.7556 26.2923 12.7106 
27340 318 4 25.5476 26.4596 12.0651 
27331 318 4 23.7366 24.6793 13.3107 
27238 313 4 28.4594 1.93085 8.96815 
27127 307 4 28.492 1.9183 8.99316 
27231 313 4 29.2507 2.42139 9.33319 
27128 307 4 28.9157 1.2923 9.70058 
27237 313 4 28.8686 1.29247 9.67308 
27239 313 4 28.4743 2.83211 8.45884 
27118 307 4 29.2749 2.87395 9.09258 
27126 307 4 28.4887 2.81591 8.47725 
27232 313 4 29.4756 3.33335 8.98992 
27125 307 4 28.9067 3.74463 8.2911 
27240 313 4 28.9092 3.75476 8.28162 
27117 307 4 29.8475 3.69379 9.09624 
27233 313 4 30.267 3.82389 9.35496 
27229 313 4 30.042 2.91193 9.69822 
27241 313 4 29.6477 4.45157 8.48398 
27124 307 4 29.634 4.4556 8.48458 
27242 313 4 30.4919 4.73584 9.0117 
27123 307 4 30.4757 4.75832 9.00585 
27119 307 4 29.4884 2.11214 9.70424 
27129 307 4 29.6464 1.10566 10.41 
27236 313 4 29.5922 1.08803 10.3847 
27230 313 4 29.8171 1.99998 10.0415 
27130 307 4 30.4881 1.40838 10.9312 
27247 313 4 30.4363 1.3723 10.9125 
27120 307 4 30.2746 2.17018 10.3196 
27246 313 4 31.1748 2.06911 11.1148 
27131 307 4 31.2154 2.11935 11.1247 
27235 313 4 30.6084 2.49052 10.4065 
27115 307 4 30.061 2.93199 9.70791 
27116 307 4 30.6337 3.75183 9.71157 
27234 313 4 30.8334 3.40247 10.0633 
27121 307 4 30.8472 2.99003 10.3232 
27245 313 4 31.6098 2.99176 10.9376 
27132 307 4 31.6334 3.04806 10.9386 
27244 313 4 31.6247 3.89302 10.4283 
27133 307 4 31.6301 3.94568 10.4227 
27243 313 4 31.2155 4.53139 9.72337 
27122 307 4 31.2063 4.57168 9.71523 
27149 308 4 29.7243 6.00554 27.5778 
27148 308 4 29.6108 5.74675 28.5739 
27138 308 4 30.8005 5.79312 28.9184 
27139 308 4 30.6505 6.01477 27.9548 
27134 308 4 31.5768 6.024 28.3317 
27136 308 4 32.503 6.03323 28.7087 
27137 308 4 31.7267 5.80235 29.2953 
27147 308 4 30.0241 5.56225 29.505 
27146 308 4 30.8535 5.50147 30.1218 
27144 308 4 32.8194 5.77873 29.8796 
27145 308 4 31.8766 5.58071 30.2589 
27374 320 4 27.9334 8.02734 15.6601 
27428 323 4 27.9207 8.05196 15.6902 
27429 323 4 28.3366 8.89964 15.2656 
27373 320 4 28.3573 8.87477 15.243 
27365 320 4 27.7437 9.21606 15.9551 
27422 323 4 27.76 9.75692 15.9501 
27430 323 4 28.421 9.93051 15.22 
27431 323 4 28.1511 10.8684 15.5657 
27372 320 4 28.4525 9.9051 15.2075 
27371 320 4 28.1933 10.8422 15.5632 
27150 308 4 30.3341 6.26927 26.7838 
27151 308 4 31.2769 6.46729 26.4046 
27140 308 4 31.4268 6.24565 27.3682 
27152 308 4 32.3 6.54653 26.5417 
27135 308 4 32.3531 6.25488 27.7451 
27100 306 4 28.2763 14.9391 15.8097 
27109 306 4 28.3413 13.9595 15.6191 
27110 306 4 29.313 14.3106 15.5521 
27111 306 4 29.9895 15.0925 15.6051 
27101 306 4 29.1004 15.5056 15.8027 
27102 306 4 29.0354 16.4851 15.9932 
27096 306 4 28.2113 15.9186 16.0002 
27112 306 4 30.1895 16.0958 15.764 
27103 306 4 28.0814 17.8777 16.3814 
27097 306 4 28.1463 16.8982 16.1908 
27114 306 4 29.0879 17.7039 16.2122 
27113 306 4 29.8595 17.0516 15.9862 
27280 315 4 31.2818 25.2314 9.45552 
27228 312 4 31.2879 25.2109 9.40487 
27277 315 4 32.9535 27.4336 8.85868 
27279 315 4 31.4949 26.0652 8.8801 
27217 312 4 31.5033 26.0547 8.84492 
27278 315 4 32.1068 26.8713 8.66164 
27218 312 4 32.1146 26.8659 8.64466 
27211 312 4 32.2421 25.9939 9.5161 
27270 315 4 32.545 26.4164 9.43697 
27219 312 4 32.9581 27.4271 8.85774 
27212 312 4 32.9696 26.6801 9.5225 
27271 315 4 32.1325 25.5964 9.83391 
27215 312 4 32.9924 25.1861 10.852 
27216 312 4 32.2536 25.2469 10.1809 
27227 312 4 31.5261 24.5606 10.1745 
27281 315 4 31.5246 24.5931 10.2337 
27272 315 4 32.5706 25.1415 10.6092 
27282 315 4 32.1581 24.3215 11.0062 
27226 312 4 32.1542 24.2781 10.9475 
27267 315 4 32.9831 25.9615 10.2123 
27210 312 4 32.981 25.9331 10.1873 
27283 315 4 33.0128 24.4893 11.5659 
27225 312 4 33.0039 24.439 11.5168 
27316 317 4 28.5718 30.6953 22.2118 
27317 317 4 28.9966 31.6384 22.256 
27314 317 4 28.4948 29.1197 23.4414 
27307 317 4 28.9833 29.947 23.7188 
27315 317 4 28.3881 29.7734 22.6456 
27308 317 4 29.0218 30.7348 23.104 
27305 317 4 29.4718 30.7744 23.9962 
27319 317 4 30.0803 32.6394 23.6066 
27318 317 4 29.5488 32.35 22.7666 
27309 317 4 29.5103 31.5622 23.3814 
27313 317 4 28.8633 28.9094 24.3858 
27312 317 4 29.3948 29.1988 25.2258 
27306 317 4 29.4333 29.9866 24.611 
27311 317 4 29.9217 30.814 24.8884 
27323 317 4 29.9469 29.9104 25.7364 
27322 317 4 30.3717 30.8535 25.7806 
27310 317 4 29.9602 31.6018 24.2736 
27320 317 4 30.4487 32.4291 24.551 
27321 317 4 30.5554 31.7754 25.3467 
ITEM: TIMESTEP
50000
ITEM: NUMBER OF ATOMS
475
ITEM: BOX BOUNDS pp pp pp
7.1354277009520928e-01 3.3076457229894366e+01
7.1354277009520928e-01 3.3076457229894366e+01
7.1354277009520928e-01 3.3076457229894366e+01
ITEM: ATOMS id mol type x y z 
27015 301 4 5.12194 3.61752 7.09188 
27209 311 4 5.07812 3.62443 7.06585 
27016 301 4 4.42586 2.96426 7.49263 
27208 311 4 4.39327 2.96537 7.47636 
27014 301 4 5.84573 4.34647 7.22096 
27198 311 4 5.79912 4.35783 7.18485 
27206 311 4 3.80722 2.50943 9.33351 
27018 301 4 3.80546 2.51776 9.34089 
27017 301 4 3.944 2.56172 8.31583 
27207 311 4 3.92809 2.55726 8.30638 
27192 311 4 5.5061 4.12986 8.11342 
27191 311 4 5.21307 3.90189 9.04199 
27001 301 4 5.22533 3.89997 9.06922 
27006 301 4 4.8256 3.43212 8.28092 
27197 311 4 4.80317 3.43363 8.25918 
27196 311 4 4.51015 3.20566 9.18775 
27007 301 4 4.5154 3.20887 9.20506 
27005 301 4 5.53553 4.12322 8.14509 
27193 311 4 5.916 4.59812 8.89623 
27004 301 4 5.93527 4.59107 8.93338 
27205 311 4 4.06305 2.83472 10.2825 
27019 301 4 4.04738 2.84417 10.2932 
27009 301 4 5.32872 4.18241 11.0466 
27203 311 4 5.34803 4.17935 11.0181 
27002 301 4 4.91513 3.67672 9.99335 
27195 311 4 4.92005 3.67392 9.97056 
27008 301 4 4.60493 3.45347 10.9175 
27204 311 4 4.62702 3.44595 10.8991 
27010 301 4 6.0248 4.83567 10.6458 
27194 311 4 5.62297 4.37015 9.82481 
27003 301 4 5.62507 4.36782 9.85751 
27202 311 4 6.03287 4.8384 10.6076 
27446 324 4 3.67483 9.66341 27.5539 
27439 324 4 3.40008 10.8366 27.2638 
27456 324 4 4.11829 11.1642 26.3083 
27445 324 4 4.07829 10.259 26.8093 
27447 324 4 3.01603 9.53691 28.3424 
27441 324 4 2.19075 11.0531 28.4848 
27448 324 4 2.27842 9.91343 28.9638 
27449 324 4 1.65962 10.6921 29.2513 
27438 324 4 2.72188 11.4142 27.7182 
27440 324 4 2.86896 10.4755 28.0303 
27453 324 4 2.42772 13.2914 27.094 
27455 324 4 3.78413 12.1363 26.1851 
27443 324 4 2.5748 12.3528 27.4061 
27454 324 4 3.16534 12.9149 26.4726 
27444 324 4 3.253 11.7752 26.9516 
27451 324 4 1.36547 12.5693 28.6271 
27442 324 4 2.04367 11.9918 28.1727 
27452 324 4 1.76892 13.1649 27.8826 
27450 324 4 1.32546 11.6642 29.1281 
27090 305 4 2.2718 18.4373 9.29054 
27027 302 4 2.29076 18.4707 9.32122 
27091 305 4 1.62973 19.1336 8.87255 
27028 302 4 1.64498 19.158 8.89417 
27029 302 4 1.25508 20.1162 8.85232 
27092 305 4 1.24683 20.095 8.84159 
27022 302 4 1.92752 20.1425 9.59206 
27082 305 4 1.9219 20.1089 9.57927 
27030 302 4 1.22554 21.0885 9.2069 
27093 305 4 1.2257 21.0639 9.20594 
27089 305 4 3.00099 18.1926 9.98355 
27038 302 4 3.01939 18.2383 10.0191 
27088 305 4 3.62193 18.465 10.7659 
27037 302 4 3.63563 18.5232 10.8007 
27021 302 4 2.44536 19.3197 9.82651 
27081 305 4 2.43438 19.28 9.80374 
27087 305 4 3.96823 19.1817 11.428 
27036 302 4 3.97437 19.249 11.4567 
27077 305 4 2.59696 20.1228 10.3169 
27020 302 4 2.59996 20.1687 10.3318 
27079 305 4 3.27203 20.1367 11.0546 
27025 302 4 3.27239 20.195 11.0715 
27026 302 4 3.11779 19.346 10.5663 
27080 305 4 3.10945 19.2939 10.5414 
27095 305 4 2.19294 22.0531 10.6503 
27032 302 4 2.18053 22.0992 10.6445 
27094 305 4 1.572 21.7806 9.868 
27031 302 4 1.56428 21.8143 9.8629 
27083 305 4 2.08448 20.9517 10.0925 
27023 302 4 2.08212 20.9915 10.0974 
27033 302 4 2.90916 21.8668 11.3424 
27084 305 4 2.92213 21.8084 11.3434 
27024 302 4 2.75456 21.0178 10.8371 
27078 305 4 2.75955 20.9656 10.8302 
27086 305 4 3.9471 20.1506 11.7923 
27035 302 4 3.94483 20.2213 11.8113 
27085 305 4 3.5642 21.112 11.7613 
27034 302 4 3.55494 21.1794 11.7694 
27160 309 4 5.86746 31.9386 14.8955 
27395 321 4 5.85865 31.9318 14.8906 
27161 309 4 5.38544 31.825 15.8047 
27396 321 4 5.36465 31.8187 15.7934 
27397 321 4 5.30713 31.9943 16.8121 
27162 309 4 5.34362 31.9963 16.8249 
27163 309 4 5.7532 32.4065 17.6827 
27398 321 4 5.70152 32.4113 17.6737 
27013 301 4 6.40328 4.95577 7.84527 
27199 311 4 6.3631 4.96906 7.80146 
27200 311 4 6.61892 5.29434 8.75047 
27012 301 4 6.6452 5.28217 8.79754 
27201 311 4 6.49805 5.24652 9.7776 
27011 301 4 6.50667 5.23821 9.82261 
27392 321 4 8.28577 1.01699 14.7781 
27169 309 4 8.30336 1.0065 14.7552 
27384 321 4 7.63971 0.774831 15.502 
27158 309 4 7.87061 0.970871 15.916 
27383 321 4 7.80814 1.0711 16.4422 
27157 309 4 7.60869 0.999748 16.8807 
27390 321 4 8.62264 1.60952 16.6585 
27167 309 4 8.67112 1.58798 16.6332 
27168 309 4 8.71294 1.41669 15.613 
27391 321 4 8.68016 1.43401 15.6398 
27388 321 4 7.33051 1.12521 18.1063 
27165 309 4 7.39604 1.10653 18.097 
27382 321 4 7.16208 0.828942 17.1661 
27389 321 4 8.12864 1.49649 17.5613 
27166 309 4 8.1891 1.47445 17.5424 
27408 322 4 7.87385 7.27659 32.2942 
27359 319 4 7.90879 7.24299 32.3297 
27409 322 4 8.80547 6.82574 32.3207 
27360 319 4 8.84597 6.80308 32.3223 
27349 319 4 9.0124 7.77005 32.129 
27402 322 4 8.98937 7.78844 32.122 
27361 319 4 9.87234 6.88137 32.2113 
27410 322 4 9.83564 6.89081 32.2408 
27411 322 4 10.6883 7.45435 32.0758 
27350 319 4 10.7129 7.45688 32.0265 
27407 322 4 7.2904 8.12254 32.1683 
27358 319 4 7.31191 8.08323 32.2316 
27418 322 4 7.21148 9.13692 31.9768 
27357 319 4 7.21528 9.09865 32.0542 
27343 319 4 9.17884 8.73703 31.9358 
27400 322 4 9.17327 8.75114 31.9234 
27347 319 4 8.41181 9.37711 31.8905 
27406 322 4 8.41574 9.39954 31.8472 
27348 319 4 8.24538 8.41013 32.0837 
27401 322 4 8.23184 8.43684 32.0458 
27344 319 4 9.94586 8.09696 31.9812 
27403 322 4 9.9308 8.10275 31.9996 
27352 319 4 11.0458 9.39084 31.6401 
27413 322 4 11.0561 9.37975 31.6785 
27345 319 4 10.1123 9.06393 31.788 
27404 322 4 10.1147 9.06545 31.8009 
27351 319 4 11.1424 8.37541 31.8175 
27412 322 4 11.1351 8.36536 31.87 
27417 322 4 7.65821 10.0479 31.771 
27356 319 4 7.64479 10.0172 31.8451 
27415 322 4 9.54108 10.6765 31.5261 
27416 322 4 8.5109 10.6115 31.606 
27354 319 4 9.51171 10.671 31.5494 
27355 319 4 8.48534 10.5927 31.6603 
27346 319 4 9.34527 9.70401 31.7426 
27405 322 4 9.35717 9.71385 31.7247 
27353 319 4 10.4489 10.2311 31.542 
27414 322 4 10.4727 10.2257 31.5526 
27393 321 4 7.54517 32.8331 14.3044 
27394 321 4 6.65678 32.3031 14.3456 
27171 309 4 6.66052 32.3065 14.3409 
27170 309 4 7.55212 32.8302 14.2896 
27155 309 4 6.18595 32.4421 16.5219 
27154 309 4 6.44787 32.4133 15.5572 
27385 321 4 6.82521 32.5993 15.2857 
27381 321 4 6.99364 32.8956 16.2259 
27153 309 4 7.02828 32.888 16.219 
27159 309 4 7.2902 32.8591 15.2543 
27386 321 4 6.17915 32.3572 16.0097 
27164 309 4 6.50443 32.9457 18.1484 
27156 309 4 6.76636 32.9168 17.1837 
27387 321 4 6.34758 32.6534 16.9498 
27399 321 4 6.44212 32.9581 18.1474 
27474 325 4 14.905 17.4611 2.39521 
27046 303 4 14.8802 17.4301 2.388 
27475 325 4 14.2156 17.4708 1.62288 
27047 303 4 14.1848 17.4491 1.62125 
27463 325 4 14.9589 18.3831 2.01166 
27040 303 4 14.9278 18.3581 2.01829 
27041 303 4 14.3383 18.6231 1.25521 
27458 325 4 14.3763 18.6385 1.24003 
27048 303 4 13.7012 17.9603 0.861823 
27464 325 4 13.7398 17.972 0.851944 
27457 325 4 15.0128 19.3051 1.62812 
27039 303 4 14.9754 19.286 1.64859 
27460 325 4 15.0668 20.2271 1.24457 
27043 303 4 15.023 20.214 1.27888 
27042 303 4 14.3859 19.5511 0.885501 
27459 325 4 14.4302 19.5605 0.856482 
27045 303 4 15.5649 19.021 2.41167 
27462 325 4 15.5954 19.0497 2.39975 
27044 303 4 15.6125 19.9489 2.04197 
27461 325 4 15.6494 19.9717 2.0162 
27052 303 4 15.0706 21.142 0.909178 
27470 325 4 16.2859 20.6383 2.40429 
27054 303 4 16.2497 20.6118 2.43535 
27053 303 4 15.7661 21.123 1.67593 
27469 325 4 15.8101 21.1394 1.63336 
27468 325 4 15.1207 21.1491 0.86102 
27473 325 4 15.6233 17.9456 2.96201 
27057 303 4 15.6012 17.9084 2.95662 
27055 303 4 16.3918 19.7454 2.98396 
27472 325 4 16.178 18.7943 3.17139 
27056 303 4 16.1544 18.7559 3.17476 
27471 325 4 16.4206 19.7799 2.96725 
27068 304 4 15.9249 21.8675 10.4702 
27060 304 4 16.8794 21.4519 9.79767 
27067 304 4 16.4184 20.9598 10.5362 
27465 325 4 13.6051 18.8303 32.6519 
27049 303 4 13.5591 18.8267 32.6761 
27050 303 4 13.7964 19.8162 32.4853 
27466 325 4 13.8476 19.8159 32.4478 
27467 325 4 14.4024 20.6647 32.6571 
27051 303 4 14.3497 20.6637 32.7035 
27071 304 4 16.7325 23.78 8.54901 
27070 304 4 16.1062 23.4958 9.32288 
27061 304 4 16.5755 22.3699 9.5426 
27069 304 4 15.8106 22.7957 10.0261 
27303 316 4 21.9138 11.1525 16.6681 
27182 310 4 21.967 16.2314 3.8575 
27256 314 4 21.9889 16.2202 3.87469 
27254 314 4 21.5492 16.4003 6.05977 
27183 310 4 21.2507 16.7632 4.3828 
27176 310 4 21.5484 16.3919 6.04826 
27249 314 4 21.7911 16.2831 5.09655 
27255 314 4 21.2636 16.7517 4.38787 
27175 310 4 21.7808 16.2829 5.0817 
27264 314 4 21.1507 16.6263 7.21138 
27263 314 4 21.8347 16.049 7.73167 
27187 310 4 21.8462 16.0206 7.71371 
27186 310 4 21.1622 16.6088 7.20575 
27253 314 4 22.0767 15.9317 6.76845 
27177 310 4 22.0785 15.9117 6.74715 
27298 316 4 22.1032 14.576 14.8868 
27301 316 4 20.6519 12.6819 16.4056 
27292 316 4 22.2048 11.9578 16.1515 
27302 316 4 21.0952 11.7864 16.6764 
27291 316 4 21.5738 12.7225 16.0202 
27300 316 4 20.7027 13.5992 15.9283 
27299 316 4 21.2339 14.2925 15.3724 
27290 316 4 21.8648 13.5278 15.5036 
27184 310 4 20.8184 17.0375 5.28264 
27266 314 4 20.821 17.032 5.28083 
27185 310 4 20.786 16.9811 6.31591 
27265 314 4 20.7797 16.9862 6.31431 
27074 304 4 18.7557 22.0206 7.64809 
27065 304 4 17.9481 20.1081 9.56926 
27076 304 4 18.5744 20.3923 8.79539 
27058 304 4 17.3403 21.9441 9.05914 
27059 304 4 17.6442 21.0261 9.3142 
27064 304 4 18.1052 21.5182 8.57567 
27075 304 4 18.87 21.0924 8.0922 
27066 304 4 17.159 20.3158 10.2064 
27073 304 4 18.2622 22.9283 7.58207 
27072 304 4 17.5216 23.5723 7.91183 
27062 304 4 17.0364 22.862 8.80407 
27063 304 4 17.8013 22.4362 8.32061 
27332 318 4 22.0384 24.1442 14.9844 
27331 318 4 22.0821 25.1782 14.9561 
27232 313 4 27.5457 2.509 11.1422 
27231 313 4 27.349 1.52851 11.1368 
27118 307 4 27.3792 2.0413 11.0527 
27238 313 4 26.6085 1.17021 10.5681 
27127 307 4 26.6322 1.16843 10.5878 
27126 307 4 26.6405 2.18545 10.3942 
27239 313 4 26.6066 2.19152 10.3984 
27119 307 4 27.57 1.12191 11.3968 
27240 313 4 27.002 3.13118 10.5789 
27125 307 4 27.0447 3.12522 10.5535 
27148 308 4 27.4899 5.27867 30.8847 
27293 316 4 23.7576 11.2338 15.8974 
27304 316 4 22.8883 10.9503 16.383 
27372 320 4 26.8302 10.6894 18.6778 
27430 323 4 26.7932 10.6657 18.688 
27426 323 4 25.924 7.82443 20.4693 
27376 320 4 25.8914 7.84464 20.4177 
27425 323 4 24.7965 9.13062 20.3183 
27367 320 4 25.1993 8.8579 20.2433 
27420 323 4 25.6931 8.73336 20.1221 
27368 320 4 24.5637 9.6254 20.1596 
27419 323 4 25.4621 9.6423 19.7748 
27362 320 4 25.4704 9.6791 19.7411 
27374 320 4 27.2512 8.85489 19.3544 
27428 323 4 27.2551 8.84779 19.3824 
27427 323 4 26.764 8.13404 19.9492 
27375 320 4 26.7416 8.14411 19.9085 
27421 323 4 26.3586 9.24505 19.5786 
27366 320 4 26.106 8.91161 19.8248 
27434 323 4 23.669 10.4368 20.1673 
27380 320 4 23.6895 10.5033 20.1277 
27364 320 4 25.7414 10.5003 19.2388 
27369 320 4 24.1991 11.2141 19.5737 
27363 320 4 24.8347 10.4466 19.6574 
27424 323 4 24.5655 10.0396 19.9711 
27433 323 4 24.1601 11.1506 19.6005 
27423 323 4 25.2311 10.5512 19.4276 
27432 323 4 25.0001 11.4602 19.0804 
27431 323 4 25.9639 11.2827 18.7464 
27371 320 4 26.0124 11.3215 18.7366 
27429 323 4 27.2658 9.77443 18.9208 
27373 320 4 27.2836 9.78651 18.904 
27365 320 4 26.377 9.73281 19.3225 
27422 323 4 26.1276 10.154 19.2314 
27435 323 4 23.6583 9.51017 20.6289 
27379 320 4 23.6571 9.5717 20.5782 
27377 320 4 24.9283 8.0367 20.7456 
27437 323 4 24.9603 8.00191 20.8033 
27378 320 4 24.1105 8.66885 20.8044 
27436 323 4 24.131 8.61894 20.8617 
27181 310 4 22.7755 15.5848 3.84748 
27257 314 4 22.8026 15.5801 3.87879 
27180 310 4 23.4596 14.9966 4.35545 
27258 314 4 23.4866 15.0027 4.39908 
27179 310 4 23.8358 14.6244 5.24528 
27259 314 4 23.8576 14.6429 5.29615 
27174 310 4 22.5432 15.6938 4.81404 
27250 314 4 22.5606 15.6973 4.84201 
27251 314 4 23.0881 15.2287 5.55069 
27173 310 4 23.0733 15.2136 5.51294 
27248 314 4 22.3186 15.8145 5.80523 
27172 310 4 22.3109 15.8027 5.7806 
27261 314 4 23.3737 14.8773 7.22259 
27189 310 4 23.3711 14.8423 7.17839 
27260 314 4 23.8163 14.597 6.32963 
27190 310 4 23.8034 14.5679 6.27855 
27188 310 4 22.6547 15.374 7.7037 
27262 314 4 22.6484 15.4088 7.73577 
27178 310 4 22.841 15.3225 6.47949 
27252 314 4 22.8462 15.3459 6.51391 
27295 316 4 24.3396 12.8444 14.8642 
27296 316 4 23.8963 13.7399 14.5934 
27297 316 4 23.0777 14.3738 14.6017 