475
Atoms. Timestep: 0
H 5.521450 3.821420 7.226170
H 6.017360 4.133960 6.372780
H 5.407290 3.841600 8.254980
H 5.705460 4.189110 9.183530
H 7.556220 5.355540 5.998640
H 6.762140 4.695490 5.923470
H 6.481750 4.598570 7.126810
H 7.251180 5.209360 6.939740
H 6.946150 5.063180 7.880840
H 7.715580 5.673970 7.693770
H 8.186830 5.937250 6.578140
H 7.410540 5.527780 8.634860
H 6.641110 4.917000 8.821930
H 7.874940 5.992390 9.388890
H 6.176720 4.452390 8.067910
H 7.130160 5.430860 9.838200
H 6.336070 4.770820 9.763030
H 8.485010 6.284750 7.506700
H 8.370850 6.304940 8.535500
H 5.530850 3.802270 7.216760
H 6.031580 4.126810 6.370690
H 5.406490 3.813180 8.244520
H 5.691840 4.156630 9.178600
H 6.774510 4.699860 5.933030
H 7.560590 5.367860 6.021050
H 6.935500 5.054230 7.894880
H 7.248040 5.211050 6.957960
H 6.483540 4.590520 7.132780
H 7.700010 5.674750 7.720050
H 8.179170 5.951830 6.611150
H 7.839430 5.981650 9.419060
H 7.387470 5.517940 8.656970
H 6.622960 4.897410 8.831790
H 6.171000 4.433710 8.069700
H 6.310420 4.740600 9.768700
H 7.096490 5.408600 9.856720
H 8.464510 6.295280 7.545230
H 8.340160 6.306190 8.573000
H 1.066300 6.042460 29.085600
H 0.766441 6.485750 27.158500
H 1.179760 6.301250 28.089600
H 29.724300 6.005540 27.577800
H 29.610800 5.746750 28.573900
H 30.800500 5.793120 28.918400
H 30.650500 6.014770 27.954800
H 31.576800 6.024000 28.331700
H 32.503000 6.033230 28.708700
H 31.726700 5.802350 29.295300
H 30.024100 5.562250 29.505000
H 30.853500 5.501470 30.121800
H 32.819400 5.778730 29.879600
H 31.876600 5.580710 30.258900
H 30.334100 6.269270 26.783800
H 31.276900 6.467290 26.404600
H 31.426800 6.245650 27.368200
H 32.300000 6.546530 26.541700
H 32.353100 6.254880 27.745100
H 3.251520 10.433900 22.237000
H 3.971050 11.143800 22.012900
H 1.854900 10.234500 23.654700
H 2.476960 10.101100 22.837900
H 2.299080 11.319700 24.055900
H 2.761540 10.971100 23.240700
H 3.508590 11.492400 22.828100
H 1.552030 10.798300 24.468500
H 4.442750 12.040500 22.225700
H 3.793170 12.362400 23.230900
H 3.046120 11.841100 23.643400
H 3.330710 12.711100 24.046200
H 4.540220 12.883800 22.818400
H 4.237350 13.447700 23.632100
H 1.649500 11.641600 25.061200
H 2.121200 12.538300 25.274000
H 2.583660 12.189700 24.458700
H 2.840730 13.248200 25.049900
H 3.615290 13.581100 24.448900
H 3.418400 20.302600 7.264620
H 4.334380 19.948700 7.592670
H 2.771930 21.092700 7.092340
H 3.598090 21.511700 7.469170
H 2.568200 22.107300 7.122010
H 4.379320 20.939700 7.719340
H 4.424260 21.930600 7.846000
H 5.274450 20.125900 7.988610
H 5.986710 20.786600 8.346330
H 5.205480 21.358600 8.096160
H 2.861810 23.074600 7.345670
H 3.643030 22.502600 7.595830
H 3.574070 23.735400 7.703390
H 4.469200 22.921600 7.972660
H 5.430120 23.558700 8.427380
H 5.250420 22.349600 8.222830
H 4.514140 23.912600 8.099320
H 6.076590 22.768600 8.599650
H 6.280310 21.753900 8.569990
H 3.427290 20.334100 7.275030
H 4.345910 19.978300 7.593560
H 2.780440 21.125400 7.110050
H 3.611020 21.542600 7.479060
H 2.578700 22.140400 7.142820
H 4.393750 20.969100 7.720810
H 4.441590 21.959800 7.848070
H 5.290180 20.153500 7.980280
H 5.224330 21.386300 8.089820
H 6.007060 20.812700 8.331580
H 2.876120 23.106900 7.364570
H 3.658860 22.533400 7.606320
H 3.593010 23.766200 7.715860
H 6.102740 22.794300 8.586090
H 4.489430 22.950600 7.975330
H 5.455900 23.585600 8.421110
H 5.272170 22.377000 8.217080
H 4.537270 23.941400 8.102580
H 6.304480 21.779300 8.553320
H 1.445230 27.601400 9.418420
H 1.058400 25.506600 10.987600
H 2.078810 27.329800 10.190900
H 1.470900 26.326500 10.590700
H 1.032730 26.781500 9.815360
H 2.321560 26.691600 10.969100
H 1.496560 25.051600 11.763000
H 2.108450 25.857700 11.544500
H 31.281800 25.231400 9.455520
H 32.953500 27.433600 8.858680
H 31.494900 26.065200 8.880100
H 32.106800 26.871300 8.661640
H 32.545000 26.416400 9.436970
H 32.132500 25.596400 9.833910
H 31.524600 24.593100 10.233700
H 32.570600 25.141500 10.609200
H 32.158100 24.321500 11.006200
H 32.983100 25.961500 10.212300
H 33.012800 24.489300 11.565900
H 1.444830 27.588000 9.427060
H 1.356930 25.872300 10.858400
H 2.072920 27.305500 10.200100
H 2.311190 26.655200 10.969700
H 1.345500 26.619300 10.193700
H 1.484430 25.000300 11.729900
H 2.095790 25.811500 11.529600
H 31.287900 25.210900 9.404870
H 31.503300 26.054700 8.844920
H 32.114600 26.865900 8.644660
H 32.242100 25.993900 9.516100
H 32.958100 27.427100 8.857740
H 32.969600 26.680100 9.522500
H 32.992400 25.186100 10.852000
H 32.253600 25.246900 10.180900
H 31.526100 24.560600 10.174500
H 32.154200 24.278100 10.947500
H 32.981000 25.933100 10.187300
H 33.003900 24.439000 11.516800
H 7.524740 1.499530 13.264700
H 8.404080 2.045970 13.257500
H 6.222940 0.933378 14.673600
H 7.675870 1.759280 14.218500
H 7.024970 1.476200 14.922900
H 6.726380 1.092300 13.783000
H 8.477900 2.302100 14.467800
H 9.128790 2.585180 13.763300
H 9.504690 2.972690 14.646800
H 6.149310 1.065360 15.697800
H 6.525210 1.452870 16.581200
H 7.176100 1.735950 15.876800
H 7.827000 2.019020 15.172300
H 7.978130 2.278770 16.126100
H 8.629030 2.561850 15.421600
H 9.431060 3.104670 15.671000
H 8.927610 2.945750 16.561600
H 7.249920 1.992080 17.087100
H 8.129260 2.538520 17.079900
H 7.547120 1.527790 13.236400
H 8.424710 2.077040 13.243800
H 7.291420 1.562980 14.448600
H 6.746920 1.109490 13.743000
H 6.238520 0.934211 14.627700
H 8.130320 2.046760 14.199000
H 8.674820 2.500250 14.904700
H 9.144530 2.610060 13.763000
H 9.513720 2.984030 14.655100
H 6.158140 1.048920 15.653400
H 6.527330 1.422890 16.545500
H 7.541540 1.986190 16.109500
H 6.997040 1.532700 15.403800
H 7.835930 2.016470 15.154300
H 8.380430 2.469970 15.859900
H 9.433340 3.098740 15.680900
H 8.924940 2.923460 16.565500
H 7.247150 1.955910 17.064700
H 8.124740 2.505150 17.072100
H 7.870580 10.682700 29.230500
H 8.851660 10.875300 29.252500
H 10.813800 11.260300 29.296500
H 9.832750 11.067800 29.274500
H 9.155820 9.262230 29.805600
H 10.184000 9.205220 29.913100
H 11.118000 9.647300 29.849500
H 8.309070 9.803030 29.555700
H 9.494290 10.165000 29.540000
H 10.475400 10.357600 29.562000
H 8.547510 12.488300 28.699500
H 9.190130 11.778100 28.987000
H 9.481540 12.930400 28.636000
H 7.957850 11.665600 28.917200
H 10.171200 11.970600 29.009000
H 10.509700 12.873400 28.743500
H 11.356400 12.332600 28.993300
H 11.794900 11.452900 29.318500
H 11.707600 10.470000 29.631900
H 7.859740 10.625500 29.232500
H 8.838210 10.830100 29.261000
H 9.816670 11.034700 29.289600
H 10.795100 11.239300 29.318100
H 9.160570 9.214050 29.794700
H 10.188900 9.168670 29.905800
H 11.117500 9.623280 29.851800
H 8.308030 9.747270 29.548200
H 9.488620 10.124400 29.542100
H 10.467100 10.329000 29.570700
H 7.935800 11.613300 28.932000
H 9.166260 11.740400 29.008500
H 8.515840 12.446100 28.727300
H 9.444440 12.900700 28.673300
H 10.144700 11.945000 29.037000
H 10.472800 12.855300 28.784500
H 11.325300 12.322100 29.030900
H 11.773600 11.443900 29.346700
H 11.697500 10.456100 29.647200
H 16.276600 19.141700 30.653900
H 16.097900 20.011900 30.122300
H 16.363100 20.981400 29.874000
H 16.851400 18.603800 31.326300
H 17.015700 19.761900 30.916700
H 17.754800 20.382200 31.179500
H 17.001300 21.790300 29.975500
H 18.658200 22.160600 31.032700
H 17.798100 21.302100 30.789600
H 17.059000 20.681800 30.526700
H 17.841300 22.221900 30.399600
H 17.668300 18.542500 31.959400
H 17.711600 19.462300 31.569500
H 18.508400 18.974100 32.383600
H 18.450700 20.082600 31.832300
H 19.146500 19.783000 32.485100
H 18.493900 21.002500 31.442300
H 19.411700 20.752500 32.236800
H 19.233000 21.622800 31.705200
H 16.245700 19.138700 30.646200
H 16.063400 20.011700 30.120300
H 16.326200 20.982900 29.876200
H 16.824300 18.597900 31.312900
H 16.985300 19.758500 30.909000
H 17.724800 20.378200 31.171800
H 17.805400 22.222300 30.401800
H 17.765100 21.300300 30.786800
H 17.025500 20.680500 30.524000
H 16.963900 21.792000 29.979200
H 18.625300 22.158500 31.030700
H 17.644300 18.534000 31.941800
H 17.684600 19.456100 31.556800
H 18.485800 18.964300 32.364400
H 18.424100 20.075800 31.819600
H 19.123400 19.773500 32.467400
H 18.464400 20.997900 31.434600
H 19.386300 20.744700 32.223300
H 19.204000 21.617600 31.697400
H 15.556400 24.994600 5.224230
H 16.760200 24.782400 5.428430
H 16.365600 25.211800 4.616060
H 15.175500 24.605500 6.104800
H 15.964800 23.746800 7.729550
H 16.559800 24.049900 6.985180
H 15.324900 24.148800 7.021810
H 16.165200 24.479300 6.172810
H 17.386300 25.198900 4.443230
H 18.345000 24.959300 4.752070
H 17.749900 24.656200 5.496440
H 18.984800 24.557300 5.459810
H 17.549500 23.923700 7.053190
H 17.944200 23.494300 7.865560
H 18.753400 23.711400 7.257390
H 17.154900 24.353000 6.240810
H 18.144600 24.226800 6.308820
H 19.134300 24.100600 6.376820
H 16.923500 23.507200 8.038390
H 21.874700 17.730600 3.455250
H 21.896500 17.238000 4.365600
H 25.187300 16.015600 2.447840
H 24.724600 16.672000 1.794410
H 23.541900 16.626800 3.406720
H 24.364600 16.321200 2.927280
H 24.163100 15.976500 3.844140
H 25.209100 15.523000 3.358190
H 24.784200 15.326200 4.281550
H 24.026400 15.477800 4.970500
H 23.340400 16.282100 4.323580
H 22.359200 16.581700 5.019030
H 23.138800 15.937400 5.240430
H 23.057400 17.775800 1.842940
H 23.743500 16.971600 2.489860
H 23.945000 17.316300 1.573000
H 22.299600 17.927500 2.531890
H 22.920800 17.277200 2.969300
H 22.719200 16.932400 3.886160
H 21.856600 17.730600 3.469100
H 22.275700 17.946800 2.547410
H 21.887000 17.223200 4.371050
H 25.181400 16.065000 2.419900
H 24.709600 16.727500 1.779350
H 23.534200 16.644100 3.395480
H 23.339900 16.282300 4.307290
H 24.357800 16.354500 2.907690
H 24.163500 15.992700 3.819510
H 25.211800 15.557600 3.321860
H 24.792800 15.341300 4.243540
H 24.036500 15.474100 4.937980
H 23.145600 15.920400 5.219110
H 22.358800 16.560600 5.011600
H 23.032000 17.814000 1.852970
H 23.728500 17.005900 2.483660
H 23.922900 17.367700 1.571840
H 22.904900 17.295500 2.971450
H 22.710600 16.933600 3.883260
H 27.284500 7.614620 16.380100
H 27.099000 9.583330 16.680200
H 27.509800 8.817650 16.185200
H 27.349200 10.522600 16.445100
H 27.599400 11.461900 16.210100
H 26.598700 7.704780 17.150400
H 25.777000 9.236150 18.140400
H 26.046900 8.298300 17.794700
H 26.438000 9.409740 17.410300
H 26.848800 8.644060 16.915300
H 25.861400 10.267000 18.094900
H 26.688200 10.349000 17.175200
H 26.277400 11.114700 17.670200
H 26.913500 11.552000 16.980400
H 27.920700 8.051960 15.690200
H 28.336600 8.899640 15.265600
H 27.760000 9.756920 15.950100
H 28.421000 9.930510 15.220000
H 28.151100 10.868400 15.565700
H 27.294200 7.589870 16.347100
H 27.130100 9.557340 16.667200
H 27.212100 8.573600 16.507200
H 27.661700 10.199800 16.115200
H 27.649300 11.435100 16.214600
H 27.048100 10.541100 16.827300
H 26.611000 7.679580 17.119800
H 25.807800 9.209580 18.126900
H 26.067000 8.272430 17.771300
H 26.598500 8.914890 17.219300
H 25.902900 10.239900 18.091500
H 26.516500 9.898620 17.379300
H 26.326900 11.087300 17.674300
H 26.966100 11.524800 16.987400
H 27.933400 8.027340 15.660100
H 28.357300 8.874770 15.243000
H 27.743700 9.216060 15.955100
H 28.452500 9.905100 15.207500
H 28.193300 10.842200 15.563200
H 23.460100 13.266400 13.154200
H 24.179000 12.589300 12.843600
H 25.134200 12.391900 12.496300
H 26.069600 12.727000 12.205400
H 24.115100 14.310700 13.025700
H 24.619700 13.484400 12.775100
H 25.565000 13.553300 12.456000
H 25.060400 14.379500 12.706600
H 26.734500 13.505000 12.048800
H 26.005700 14.448400 12.387500
H 26.950900 14.517200 12.068400
H 24.051200 16.032000 13.207900
H 25.501100 15.274600 12.638200
H 24.555800 15.205800 12.957300
H 24.986600 16.367100 12.917000
H 25.941800 16.169700 12.569700
H 26.660800 15.492600 12.259100
H 23.169900 14.241800 13.344800
H 23.386300 15.254100 13.364500
H 27.334800 14.133400 15.788300
H 26.563200 14.785600 16.014300
H 27.387300 15.352100 16.007200
H 27.322300 16.331700 16.197800
H 26.433200 16.744700 16.395400
H 26.233200 15.741400 16.236500
H 27.109700 17.526700 16.448400
H 28.276300 14.939100 15.809700
H 28.341300 13.959500 15.619100
H 29.313000 14.310600 15.552100
H 29.989500 15.092500 15.605100
H 29.100400 15.505600 15.802700
H 29.035400 16.485100 15.993200
H 28.211300 15.918600 16.000200
H 30.189500 16.095800 15.764000
H 28.081400 17.877700 16.381400
H 28.146300 16.898200 16.190800
H 29.087900 17.703900 16.212200
H 29.859500 17.051600 15.986200
H 25.719300 22.677000 11.295600
H 26.382200 23.328600 10.839600
H 26.738300 24.290000 10.695400
H 25.987900 24.387300 11.349200
H 26.692300 25.303600 10.901600
H 26.256400 26.097700 11.402900
H 23.782600 23.665800 13.104500
H 24.728000 23.678200 12.303100
H 24.218500 22.871600 12.603200
H 24.927300 22.509700 11.941100
H 25.478400 23.580800 11.649300
H 24.092800 25.640700 13.166500
H 24.487000 24.582000 12.656900
H 24.996500 25.388500 12.356800
H 25.237500 24.484700 12.003100
H 25.746900 25.291200 11.703000
H 24.755600 26.292300 12.710600
H 25.547600 26.459600 12.065100
H 23.736600 24.679300 13.310700
H 28.459400 1.930850 8.968150
H 29.250700 2.421390 9.333190
H 28.868600 1.292470 9.673080
H 28.474300 2.832110 8.458840
H 29.475600 3.333350 8.989920
H 28.909200 3.754760 8.281620
H 30.267000 3.823890 9.354960
H 30.042000 2.911930 9.698220
H 29.647700 4.451570 8.483980
H 30.491900 4.735840 9.011700
H 29.592200 1.088030 10.384700
H 29.817100 1.999980 10.041500
H 30.436300 1.372300 10.912500
H 31.174800 2.069110 11.114800
H 30.608400 2.490520 10.406500
H 30.833400 3.402470 10.063300
H 31.609800 2.991760 10.937600
H 31.624700 3.893020 10.428300
H 31.215500 4.531390 9.723370
H 28.492000 1.918300 8.993160
H 28.915700 1.292300 9.700580
H 29.274900 2.873950 9.092580
H 28.488700 2.815910 8.477250
H 28.906700 3.744630 8.291100
H 29.847500 3.693790 9.096240
H 29.634000 4.455600 8.484580
H 30.475700 4.758320 9.005850
H 29.488400 2.112140 9.704240
H 29.646400 1.105660 10.410000
H 30.488100 1.408380 10.931200
H 30.274600 2.170180 10.319600
H 31.215400 2.119350 11.124700
H 30.061000 2.931990 9.707910
H 30.633700 3.751830 9.711570
H 30.847200 2.990030 10.323200
H 31.633400 3.048060 10.938600
H 31.630100 3.945680 10.422700
H 31.206300 4.571680 9.715230
H 28.571800 30.695300 22.211800
H 28.996600 31.638400 22.256000
H 28.494800 29.119700 23.441400
H 28.983300 29.947000 23.718800
H 28.388100 29.773400 22.645600
H 29.021800 30.734800 23.104000
H 29.471800 30.774400 23.996200
H 30.080300 32.639400 23.606600
H 29.548800 32.350000 22.766600
H 29.510300 31.562200 23.381400
H 28.863300 28.909400 24.385800
H 29.394800 29.198800 25.225800
H 29.433300 29.986600 24.611000
H 29.921700 30.814000 24.888400
H 29.946900 29.910400 25.736400
H 30.371700 30.853500 25.780600
H 29.960200 31.601800 24.273600
H 30.448700 32.429100 24.551000
H 30.555400 31.775400 25.346700
475
Atoms. Timestep: 50000
H 27.489900 5.278670 30.884700
H 28.575900 4.813400 29.270900
H 29.583000 4.843250 29.032700
H 30.561200 5.054340 29.298000
H 27.809700 4.972770 29.948800
H 28.642500 5.246190 30.430300
H 29.475200 5.519600 30.911800
H 29.529100 5.181430 29.972300
H 30.361800 5.454840 30.453800
H 31.248400 5.390090 29.995700
H 31.460500 5.760540 30.939000
H 27.702000 5.649120 31.827900
H 28.588600 5.584360 31.369900
H 29.421300 5.857780 31.851400
H 28.389200 5.984870 32.525700
H 31.140700 6.066430 31.874900
H 30.308000 5.793020 31.393400
H 29.367500 6.195950 32.791000
H 30.374600 6.225810 32.552800
H 3.674830 9.663410 27.553900
H 3.400080 10.836600 27.263800
H 4.118290 11.164200 26.308300
H 4.078290 10.259000 26.809300
H 3.016030 9.536910 28.342400
H 2.190750 11.053100 28.484800
H 2.278420 9.913430 28.963800
H 1.659620 10.692100 29.251300
H 2.721880 11.414200 27.718200
H 2.868960 10.475500 28.030300
H 2.427720 13.291400 27.094000
H 3.784130 12.136300 26.185100
H 2.574800 12.352800 27.406100
H 3.165340 12.914900 26.472600
H 3.253000 11.775200 26.951600
H 1.365470 12.569300 28.627100
H 2.043670 11.991800 28.172700
H 1.768920 13.164900 27.882600
H 1.325460 11.664200 29.128100
H 5.121940 3.617520 7.091880
H 5.078120 3.624430 7.065850
H 4.425860 2.964260 7.492630
H 4.393270 2.965370 7.476360
H 5.845730 4.346470 7.220960
H 5.799120 4.357830 7.184850
H 3.807220 2.509430 9.333510
H 3.805460 2.517760 9.340890
H 3.944000 2.561720 8.315830
H 3.928090 2.557260 8.306380
H 5.506100 4.129860 8.113420
H 5.213070 3.901890 9.041990
H 5.225330 3.899970 9.069220
H 4.825600 3.432120 8.280920
H 4.803170 3.433630 8.259180
H 4.510150 3.205660 9.187750
H 4.515400 3.208870 9.205060
H 5.535530 4.123220 8.145090
H 5.916000 4.598120 8.896230
H 5.935270 4.591070 8.933380
H 4.063050 2.834720 10.282500
H 4.047380 2.844170 10.293200
H 5.328720 4.182410 11.046600
H 5.348030 4.179350 11.018100
H 4.915130 3.676720 9.993350
H 4.920050 3.673920 9.970560
H 4.604930 3.453470 10.917500
H 4.627020 3.445950 10.899100
H 6.024800 4.835670 10.645800
H 5.622970 4.370150 9.824810
H 5.625070 4.367820 9.857510
H 6.032870 4.838400 10.607600
H 6.403280 4.955770 7.845270
H 6.363100 4.969060 7.801460
H 6.618920 5.294340 8.750470
H 6.645200 5.282170 8.797540
H 6.498050 5.246520 9.777600
H 6.506670 5.238210 9.822610
H 7.873850 7.276590 32.294200
H 7.908790 7.242990 32.329700
H 8.805470 6.825740 32.320700
H 8.845970 6.803080 32.322300
H 9.012400 7.770050 32.129000
H 8.989370 7.788440 32.122000
H 9.872340 6.881370 32.211300
H 9.835640 6.890810 32.240800
H 10.688300 7.454350 32.075800
H 10.712900 7.456880 32.026500
H 7.290400 8.122540 32.168300
H 7.311910 8.083230 32.231600
H 7.211480 9.136920 31.976800
H 7.215280 9.098650 32.054200
H 9.178840 8.737030 31.935800
H 9.173270 8.751140 31.923400
H 8.411810 9.377110 31.890500
H 8.415740 9.399540 31.847200
H 8.245380 8.410130 32.083700
H 8.231840 8.436840 32.045800
H 9.945860 8.096960 31.981200
H 9.930800 8.102750 31.999600
H 11.045800 9.390840 31.640100
H 11.056100 9.379750 31.678500
H 10.112300 9.063930 31.788000
H 10.114700 9.065450 31.800900
H 11.142400 8.375410 31.817500
H 11.135100 8.365360 31.870000
H 7.658210 10.047900 31.771000
H 7.644790 10.017200 31.845100
H 9.541080 10.676500 31.526100
H 8.510900 10.611500 31.606000
H 9.511710 10.671000 31.549400
H 8.485340 10.592700 31.660300
H 9.345270 9.704010 31.742600
H 9.357170 9.713850 31.724700
H 10.448900 10.231100 31.542000
H 10.472700 10.225700 31.552600
H 27.545700 2.509000 11.142200
H 27.349000 1.528510 11.136800
H 27.379200 2.041300 11.052700
H 26.608500 1.170210 10.568100
H 26.632200 1.168430 10.587800
H 26.640500 2.185450 10.394200
H 26.606600 2.191520 10.398400
H 27.570000 1.121910 11.396800
H 27.002000 3.131180 10.578900
H 27.044700 3.125220 10.553500
H 27.022000 32.709600 11.082400
H 27.007300 32.703800 11.042600
H 27.927200 2.816540 11.367100
H 27.736400 3.735930 11.023000
H 27.688800 3.737420 11.061200
H 28.856600 1.753000 12.369700
H 28.633200 1.264640 12.268800
H 28.829900 2.245120 12.274200
H 28.117900 1.897150 11.711200
H 28.308700 0.977761 12.055300
H 28.089400 1.886820 11.705500
H 27.892700 0.906334 11.700100
H 29.572300 1.582120 13.012600
H 29.595300 1.608850 13.028200
H 28.665900 2.672390 12.025600
H 29.213800 3.447630 12.339900
H 29.171600 3.432720 12.368300
H 28.482900 3.847790 11.716200
H 28.530400 3.853940 11.676800
H 28.286200 2.867300 11.710900
H 29.603600 2.625870 12.834600
H 29.570400 2.603430 12.842900
H 27.705500 32.303300 11.745500
H 29.176900 33.005400 12.832100
H 28.499400 32.421300 12.399400
H 28.490100 32.399100 12.349700
H 29.191200 33.032000 12.868900
H 27.696000 32.288800 11.694700
H 5.867460 31.938600 14.895500
H 5.858650 31.931800 14.890600
H 5.385440 31.825000 15.804700
H 5.364650 31.818700 15.793400
H 5.307130 31.994300 16.812100
H 5.343620 31.996300 16.824900
H 5.753200 32.406500 17.682700
H 5.701520 32.411300 17.673700
H 8.285770 1.016990 14.778100
H 8.303360 1.006500 14.755200
H 7.639710 0.774831 15.502000
H 7.870610 0.970871 15.916000
H 7.808140 1.071100 16.442200
H 7.608690 0.999748 16.880700
H 8.622640 1.609520 16.658500
H 8.671120 1.587980 16.633200
H 8.712940 1.416690 15.613000
H 8.680160 1.434010 15.639800
H 7.330510 1.125210 18.106300
H 7.396040 1.106530 18.097000
H 7.162080 0.828942 17.166100
H 8.128640 1.496490 17.561300
H 8.189100 1.474450 17.542400
H 7.545170 32.833100 14.304400
H 6.656780 32.303100 14.345600
H 6.660520 32.306500 14.340900
H 7.552120 32.830200 14.289600
H 6.185950 32.442100 16.521900
H 6.447870 32.413300 15.557200
H 6.825210 32.599300 15.285700
H 6.993640 32.895600 16.225900
H 7.028280 32.888000 16.219000
H 7.290200 32.859100 15.254300
H 6.179150 32.357200 16.009700
H 6.504430 32.945700 18.148400
H 6.766360 32.916800 17.183700
H 6.347580 32.653400 16.949800
H 6.442120 32.958100 18.147400
H 2.271800 18.437300 9.290540
H 2.290760 18.470700 9.321220
H 1.629730 19.133600 8.872550
H 1.644980 19.158000 8.894170
H 1.255080 20.116200 8.852320
H 1.246830 20.095000 8.841590
H 1.927520 20.142500 9.592060
H 1.921900 20.108900 9.579270
H 1.225540 21.088500 9.206900
H 1.225700 21.063900 9.205940
H 3.000990 18.192600 9.983550
H 3.019390 18.238300 10.019100
H 3.621930 18.465000 10.765900
H 3.635630 18.523200 10.800700
H 2.445360 19.319700 9.826510
H 2.434380 19.280000 9.803740
H 3.968230 19.181700 11.428000
H 3.974370 19.249000 11.456700
H 2.596960 20.122800 10.316900
H 2.599960 20.168700 10.331800
H 3.272030 20.136700 11.054600
H 3.272390 20.195000 11.071500
H 3.117790 19.346000 10.566300
H 3.109450 19.293900 10.541400
H 2.192940 22.053100 10.650300
H 2.180530 22.099200 10.644500
H 1.572000 21.780600 9.868000
H 1.564280 21.814300 9.862900
H 2.084480 20.951700 10.092500
H 2.082120 20.991500 10.097400
H 2.909160 21.866800 11.342400
H 2.922130 21.808400 11.343400
H 2.754560 21.017800 10.837100
H 2.759550 20.965600 10.830200
H 3.947100 20.150600 11.792300
H 3.944830 20.221300 11.811300
H 3.564200 21.112000 11.761300
H 3.554940 21.179400 11.769400
H 30.447200 25.516700 9.227420
H 30.451700 25.510500 9.205230
H 29.841000 24.718600 9.487280
H 29.856800 24.699500 9.450420
H 31.223600 26.159700 9.439270
H 31.236200 26.151000 9.443940
H 29.734600 23.473200 11.048600
H 29.745300 23.445900 11.004900
H 29.580200 23.970600 10.153900
H 29.598300 23.943700 10.109100
H 30.685400 24.122600 11.445700
H 30.781900 25.208300 10.099500
H 30.432200 24.189300 11.026900
H 30.355200 24.424900 10.551400
H 30.485400 24.812100 10.246300
H 31.129800 24.905500 11.005300
H 31.112100 24.906100 10.993700
H 31.183000 25.528300 10.224600
H 31.869000 25.387200 11.436000
H 31.827400 25.621700 10.983600
H 31.538800 25.689500 10.541800
H 31.996800 26.451600 10.078800
H 32.478900 26.366200 10.982600
H 31.965600 26.472900 10.089800
H 32.525100 26.337900 10.961900
H 30.258700 23.339200 11.897700
H 30.262800 23.359500 11.931700
H 31.000700 23.652500 12.548200
H 31.023400 23.660100 12.566600
H 31.076600 24.282800 11.785900
H 31.442300 24.603800 11.888000
H 31.772500 24.301600 12.782300
H 31.812500 24.294400 12.783100
H 32.418600 25.092400 12.523300
H 32.367400 25.112600 12.537100
H 31.774200 24.999000 11.764300
H 32.626000 25.868400 11.878300
H 32.679500 25.840400 11.856700
H 21.913800 11.152500 16.668100
H 22.103200 14.576000 14.886800
H 20.651900 12.681900 16.405600
H 22.204800 11.957800 16.151500
H 21.095200 11.786400 16.676400
H 21.573800 12.722500 16.020200
H 20.702700 13.599200 15.928300
H 21.233900 14.292500 15.372400
H 21.864800 13.527800 15.503600
H 23.757600 11.233800 15.897400
H 22.888300 10.950300 16.383000
H 26.830200 10.689400 18.677800
H 26.793200 10.665700 18.688000
H 25.924000 7.824430 20.469300
H 25.891400 7.844640 20.417700
H 24.796500 9.130620 20.318300
H 25.199300 8.857900 20.243300
H 25.693100 8.733360 20.122100
H 24.563700 9.625400 20.159600
H 25.462100 9.642300 19.774800
H 25.470400 9.679100 19.741100
H 27.251200 8.854890 19.354400
H 27.255100 8.847790 19.382400
H 26.764000 8.134040 19.949200
H 26.741600 8.144110 19.908500
H 26.358600 9.245050 19.578600
H 26.106000 8.911610 19.824800
H 23.669000 10.436800 20.167300
H 23.689500 10.503300 20.127700
H 25.741400 10.500300 19.238800
H 24.199100 11.214100 19.573700
H 24.834700 10.446600 19.657400
H 24.565500 10.039600 19.971100
H 24.160100 11.150600 19.600500
H 25.231100 10.551200 19.427600
H 25.000100 11.460200 19.080400
H 25.963900 11.282700 18.746400
H 26.012400 11.321500 18.736600
H 27.265800 9.774430 18.920800
H 27.283600 9.786510 18.904000
H 26.377000 9.732810 19.322500
H 26.127600 10.154000 19.231400
H 23.658300 9.510170 20.628900
H 23.657100 9.571700 20.578200
H 24.928300 8.036700 20.745600
H 24.960300 8.001910 20.803300
H 24.110500 8.668850 20.804400
H 24.131000 8.618940 20.861700
H 24.339600 12.844400 14.864200
H 23.896300 13.739900 14.593400
H 23.077700 14.373800 14.601700
H 22.495800 12.763200 15.634900
H 23.417700 12.803800 15.249600
H 23.126700 11.998500 15.766200
H 24.288900 11.927100 15.341500
H 22.786700 13.568500 15.118300
H 27.493900 16.859500 17.863000
H 25.898800 16.523800 18.448900
H 26.865500 16.277400 18.379100
H 25.049300 11.513600 19.064500
H 24.980400 14.530900 19.927200
H 26.575400 14.866700 19.341300
H 25.902200 14.066300 20.006200
H 26.913700 14.038100 19.787600
H 25.270400 15.941600 18.964900
H 25.608700 15.113100 19.411100
H 24.303700 16.188000 19.034700
H 24.395300 15.307500 19.571600
H 27.203800 15.448800 18.825300
H 26.237100 15.695200 18.895100
H 25.560500 17.352300 18.002600
H 24.730200 16.936500 18.460400
H 26.572100 17.324200 17.784000
H 28.079000 16.082900 18.218600
H 27.744000 14.454000 19.329800
H 28.170500 15.202400 18.755500
H 25.982300 29.168300 23.877100
H 26.716600 29.873400 23.688700
H 27.485600 30.479100 24.025900
H 25.479400 28.552700 24.540500
H 25.342700 28.191600 25.501100
H 26.094300 28.847100 25.575500
H 26.414100 29.335400 24.763500
H 26.846000 29.502500 25.649900
H 27.165800 29.990800 24.837900
H 27.597600 30.157900 25.724200
H 25.608800 28.181800 26.501600
H 26.975400 29.131500 27.611000
H 26.526200 29.014100 26.461900
H 26.206400 28.525800 27.273900
H 27.277800 29.669500 26.536200
H 28.349300 30.813300 25.798600
H 28.083200 30.823100 24.798100
H 27.709700 29.836600 27.422600
H 28.212600 30.452200 26.759300
H 14.905000 17.461100 2.395210
H 14.880200 17.430100 2.388000
H 14.215600 17.470800 1.622880
H 14.184800 17.449100 1.621250
H 14.958900 18.383100 2.011660
H 14.927800 18.358100 2.018290
H 14.338300 18.623100 1.255210
H 14.376300 18.638500 1.240030
H 13.701200 17.960300 0.861823
H 13.739800 17.972000 0.851944
H 15.012800 19.305100 1.628120
H 14.975400 19.286000 1.648590
H 15.066800 20.227100 1.244570
H 15.023000 20.214000 1.278880
H 14.385900 19.551100 0.885501
H 14.430200 19.560500 0.856482
H 15.564900 19.021000 2.411670
H 15.595400 19.049700 2.399750
H 15.612500 19.948900 2.041970
H 15.649400 19.971700 2.016200
H 15.070600 21.142000 0.909178
H 16.285900 20.638300 2.404290
H 16.249700 20.611800 2.435350
H 15.766100 21.123000 1.675930
H 15.810100 21.139400 1.633360
H 15.120700 21.149100 0.861020
H 15.623300 17.945600 2.962010
H 15.601200 17.908400 2.956620
H 16.391800 19.745400 2.983960
H 16.178000 18.794300 3.171390
H 16.154400 18.755900 3.174760
H 16.420600 19.779900 2.967250
H 13.605100 18.830300 32.651900
H 13.559100 18.826700 32.676100
H 13.796400 19.816200 32.485300
H 13.847600 19.815900 32.447800
H 14.402400 20.664700 32.657100
H 14.349700 20.663700 32.703500
H 15.924900 21.867500 10.470200
H 16.879400 21.451900 9.797670
H 16.418400 20.959800 10.536200
H 16.732500 23.780000 8.549010
H 16.106200 23.495800 9.322880
H 16.575500 22.369900 9.542600
H 15.810600 22.795700 10.026100
H 18.755700 22.020600 7.648090
H 17.948100 20.108100 9.569260
H 18.574400 20.392300 8.795390
H 17.340300 21.944100 9.059140
H 17.644200 21.026100 9.314200
H 18.105200 21.518200 8.575670
H 18.870000 21.092400 8.092200
H 17.159000 20.315800 10.206400
H 18.262200 22.928300 7.582070
H 17.521600 23.572300 7.911830
H 17.036400 22.862000 8.804070
H 17.801300 22.436200 8.320610
H 22.038400 24.144200 14.984400
H 22.082100 25.178200 14.956100
H 25.342300 23.950000 12.990400
H 24.861800 23.080600 13.282000
H 25.386000 24.984000 12.962100
H 24.981200 25.905500 13.204800
H 22.443200 23.222700 14.741800
H 24.073300 22.608600 13.758900
H 23.892800 23.586400 13.866100
H 23.188000 22.660600 14.293200
H 23.077700 23.893400 14.357500
H 23.712200 24.564100 13.973300
H 23.531700 25.541900 14.080500
H 22.897200 24.871100 14.464700
H 24.527200 24.257100 13.481800
H 24.346700 25.234800 13.589000
H 22.562600 26.047700 14.664500
H 23.351100 26.519600 14.187600
H 24.236400 26.467600 13.653300
H 21.967000 16.231400 3.857500
H 21.988900 16.220200 3.874690
H 21.549200 16.400300 6.059770
H 21.250700 16.763200 4.382800
H 21.548400 16.391900 6.048260
H 21.791100 16.283100 5.096550
H 21.263600 16.751700 4.387870
H 21.780800 16.282900 5.081700
H 21.150700 16.626300 7.211380
H 21.834700 16.049000 7.731670
H 21.846200 16.020600 7.713710
H 21.162200 16.608800 7.205750
H 22.076700 15.931700 6.768450
H 22.078500 15.911700 6.747150
H 20.818400 17.037500 5.282640
H 20.821000 17.032000 5.280830
H 20.786000 16.981100 6.315910
H 20.779700 16.986200 6.314310
H 22.775500 15.584800 3.847480
H 22.802600 15.580100 3.878790
H 23.459600 14.996600 4.355450
H 23.486600 15.002700 4.399080
H 23.835800 14.624400 5.245280
H 23.857600 14.642900 5.296150
H 22.543200 15.693800 4.814040
H 22.560600 15.697300 4.842010
H 23.088100 15.228700 5.550690
H 23.073300 15.213600 5.512940
H 22.318600 15.814500 5.805230
H 22.310900 15.802700 5.780600
H 23.373700 14.877300 7.222590
H 23.371100 14.842300 7.178390
H 23.816300 14.597000 6.329630
H 23.803400 14.567900 6.278550
H 22.654700 15.374000 7.703700
H 22.648400 15.408800 7.735770
H 22.841000 15.322500 6.479490
H 22.846200 15.345900 6.513910
