9000
Atoms. Timestep: 0
O 1.298000 1.056970 2.155070
O 0.884016 2.367310 2.108670
O 1.170190 0.916263 1.221030
O 2.982920 1.098960 1.818920
O 0.736254 3.077540 2.750960
O 2.136740 33.030100 2.019080
O 32.635100 1.350330 1.900050
O 31.402700 3.188110 2.028640
O 31.602400 4.097640 1.774870
O 32.922200 1.709820 2.742100
O 31.528500 2.144510 3.426260
O 32.047700 1.459290 3.771920
O 31.275500 2.924880 2.987240
O 31.440200 3.987670 2.798310
O 32.292400 3.588110 2.874760
O 30.780800 2.298360 5.270780
O 30.397700 1.429830 5.026210
O 29.941900 0.847570 5.678810
O 31.779800 1.975780 4.541800
O 31.497800 1.721830 5.418290
O 32.664700 32.863700 1.411520
O 28.981500 30.002300 3.621880
O 29.788900 30.459300 4.107560
O 28.943700 30.220700 4.532550
O 29.543900 31.126900 4.791300
O 30.167100 30.907200 5.478690
O 30.703300 30.557400 4.698900
O 31.054200 31.435700 4.607940
O 30.388200 32.159800 4.558350
O 29.751100 32.888600 4.799580
O 3.972270 1.886400 1.509240
O 3.589230 1.251140 0.883685
O 5.364820 1.616400 1.906170
O 4.406370 1.294920 2.049260
O 5.659130 1.489990 2.788730
O 5.391230 3.369190 4.112160
O 5.359720 4.337140 4.280110
O 5.994610 4.161420 5.278600
O 5.291260 3.556800 5.063710
O 5.336020 6.048300 5.114230
O 5.803610 5.176750 5.889130
O 5.108100 5.173870 4.819010
O 5.887440 6.107690 4.291530
O 6.533780 1.568980 3.161060
O 6.714250 0.823396 3.777070
O 7.387950 3.626620 3.679200
O 6.734280 4.230600 3.942860
O 7.280450 1.935230 6.063790
O 6.138610 1.309630 4.357770
O 6.691180 1.766050 5.055080
O 7.093280 1.113370 5.623120
O 7.168820 3.145890 4.502930
O 7.050100 2.828110 5.807240
O 6.988380 3.741860 5.551880
O 6.368410 3.363020 4.887220
O 6.115780 5.177030 4.972160
O 6.915140 4.447350 4.872330
O 6.618640 5.706930 5.684560
O 7.273530 5.568770 5.051710
O 6.695400 6.248440 4.795880
O 1.337240 3.584490 1.659930
O 0.816610 3.212310 0.878062
O 1.013120 6.042260 2.167770
O 1.244580 4.528290 1.797710
O 1.769430 5.379080 2.015720
O 0.725305 5.436100 1.539400
O 0.953984 2.049450 30.585200
O 1.265690 2.418500 31.431300
O 1.741300 2.192830 32.225700
O 1.017570 3.880950 32.589900
O 2.376870 2.857080 32.548300
O 1.624370 3.246910 32.131200
O 30.178800 1.293880 0.889846
O 30.622500 5.845290 1.860990
O 30.135600 5.830510 1.088560
O 32.342000 5.886730 1.804310
O 31.928700 5.140830 1.424650
O 31.421800 5.922740 1.346190
O 29.108300 2.035590 31.139100
O 29.057500 1.115770 30.909900
O 31.737600 2.236950 31.178600
O 32.431200 1.729570 30.718200
O 31.172700 2.528930 30.474000
O 30.553800 2.921220 31.093400
O 29.661200 2.701940 30.786700
O 29.851500 1.121560 31.437300
O 29.969400 1.393460 32.360700
O 30.930600 1.847170 32.958100
O 29.196500 5.455780 32.515500
O 29.837200 6.144880 32.608800
O 5.684250 3.690940 1.259150
O 5.316330 4.516310 1.572560
O 5.311440 5.070890 0.766514
O 6.030210 5.259220 32.460300
O 4.814060 7.248360 31.004200
O 5.689350 7.634210 30.779500
O 5.512270 8.430960 31.256500
O 5.167650 9.343060 31.113200
O 5.852590 9.959250 30.933800
O 5.330470 10.495600 30.177800
O 5.042610 10.361700 31.084500
O 5.462190 11.435500 29.957500
O 5.196680 6.168880 31.446300
O 5.297030 7.123610 31.818500
O 5.869430 6.131500 32.085400
O 5.482670 12.139100 30.605100
O 6.207360 4.454750 1.056760
O 7.456650 11.191000 30.793400
O 7.087170 11.016300 29.917700
O 6.536600 12.477100 29.164600
O 6.365330 11.614800 29.528600
O 7.261290 11.889100 29.658300
O 7.894660 12.054000 30.590500
O 6.120200 12.587900 30.026300
O 8.137360 12.936300 30.500000
O 8.763970 13.705800 30.385600
O 9.576000 14.180400 30.208800
O 8.874350 14.747400 29.893300
O 8.768780 15.631800 30.115200
O 9.572860 15.239800 30.595500
O 2.746450 5.085660 2.153540
O 3.069520 5.947830 2.235390
O 2.425910 5.257330 3.070920
O 2.975490 5.753010 3.681500
O 3.403480 4.295750 31.142800
O 4.126910 4.488890 30.446400
O 5.033410 4.862340 30.485900
O 5.732830 4.392850 30.080700
O 3.382950 4.350170 32.166600
O 3.387240 5.322710 32.762600
O 4.135410 4.745720 32.567800
O 4.154280 4.751820 31.449900
O 4.164940 5.727240 33.033700
O 2.754890 7.024470 2.503490
O 3.750390 6.978640 1.749290
O 3.497290 6.164740 1.187290
O 3.991360 6.109600 2.010350
O 3.219060 9.701180 1.739270
O 4.031290 9.280730 1.351930
O 4.058180 8.429210 0.852402
O 4.953840 8.867190 1.176360
O 2.540670 6.627750 3.372790
O 2.907670 6.489460 4.277090
O 2.902930 7.952860 2.731210
O 2.951240 8.899480 2.607480
O 2.707110 9.526560 3.417190
O 3.641010 9.073190 3.411810
O 3.637960 9.973780 2.584520
O 4.287530 9.717520 3.320980
O 4.506530 9.124950 32.708800
O 4.132140 4.012130 3.141530
O 3.404260 3.363780 2.947770
O 3.487490 3.719840 3.898620
O 3.255190 4.286150 4.667300
O 4.220190 5.593670 5.326900
O 3.961310 4.732450 5.103870
O 5.407880 5.958300 6.832430
O 4.808750 5.746200 6.120220
O 4.757330 4.053900 9.590910
O 4.273760 5.234560 9.644170
O 4.331140 5.151640 8.000270
O 5.031710 5.769150 7.918730
O 4.393200 5.640420 8.779660
O 6.039620 3.744500 10.002800
O 4.616090 3.704900 10.433600
O 5.618180 3.894910 11.044100
O 5.228040 3.153960 9.954010
O 5.334330 4.503230 10.290500
O 4.363280 4.720940 10.464100
O 4.881640 4.473190 11.247300
O 5.831250 6.202370 5.984090
O 5.780710 6.373520 7.754860
O 4.709200 7.075360 7.473840
O 5.551740 7.376200 7.229520
O 5.600710 8.249600 6.912360
O 5.128220 6.842810 8.304900
O 6.515550 4.204630 10.768500
O 6.682760 7.382990 6.817470
O 6.256660 6.530150 6.777490
O 6.502730 8.278030 6.535050
O 1.208390 2.293600 4.710180
O 1.943020 2.319060 5.322180
O 1.317170 3.171590 5.057710
O 1.814320 3.067490 6.039510
O 2.657640 2.892670 5.596250
O 2.152800 2.470360 7.386820
O 1.467540 1.799180 7.600340
O 1.841440 3.256250 7.015360
O 2.198290 1.794080 8.200330
O 2.146600 1.359630 9.065670
O 3.397790 32.454100 7.236370
O 4.265500 32.374700 7.551550
O 3.898180 31.994200 6.561590
O 4.306280 32.877600 6.454860
O 2.381530 31.947100 8.359990
O 2.077270 32.764900 8.916540
O 3.300820 32.221700 8.433000
O 3.972370 32.867800 8.377290
O 32.911400 4.515350 4.008720
O 31.994100 4.760730 4.232170
O 32.246800 3.949330 5.953300
O 33.059300 3.819410 4.651320
O 31.012900 5.528560 5.891680
O 32.472600 4.918640 5.123080
O 31.858400 5.057440 5.825180
O 29.788100 4.067640 6.544800
O 30.657300 3.806110 6.676620
O 31.430400 4.274560 6.306020
O 29.640100 4.973530 6.744370
O 30.559900 5.042990 6.549840
O 2.537320 1.224990 5.905010
O 5.287530 0.785421 29.193200
O 6.068300 1.184160 28.930000
O 4.766320 31.203200 1.786080
O 3.869160 31.580700 2.008130
O 4.664020 31.311200 0.858453
O 4.041840 31.121700 2.908850
O 4.481300 30.273400 3.090670
O 4.896580 29.803000 3.786980
O 3.555630 30.845600 4.826600
O 4.166780 31.168600 5.896520
O 4.865670 30.063800 4.751530
O 4.457210 31.023600 4.980480
O 5.379280 30.652100 5.384700
O 2.486890 32.806500 5.292600
O 2.415910 32.132400 4.657230
O 3.251230 31.676800 4.369900
O 4.900590 30.570000 6.198940
O 5.618060 32.304900 30.756200
O 5.346160 32.416500 29.822600
O 4.648450 31.037700 32.280800
O 5.015460 31.901500 32.279800
O 5.647500 32.809700 32.495700
O 5.139570 32.661300 31.711800
O 6.091050 33.042900 31.596300
O 6.785180 1.161380 29.581100
O 6.513960 0.845856 32.414700
O 6.648080 32.588900 29.242700
O 6.842320 32.726400 31.071700
O 6.208150 32.940600 30.390600
O 5.959680 3.124870 5.798140
O 5.021920 4.440200 5.507350
O 4.210750 2.229590 7.461500
O 5.165310 2.138430 7.525040
O 5.972770 2.245620 7.023970
O 4.552960 3.303450 6.748880
O 5.333150 2.814200 6.425290
O 5.095840 3.821980 6.222540
O 5.962280 1.770770 7.908780
O 5.114730 2.363940 8.667530
O 5.829810 2.304540 9.622110
O 4.507550 2.500900 9.412820
O 4.126210 2.534260 8.401990
O 4.668480 3.363790 8.938740
O 5.604160 3.137020 9.062880
O 5.741160 1.398630 11.167600
O 4.967080 1.732060 11.644700
O 6.687660 2.537560 7.623120
O 7.147200 2.803910 6.845200
O 6.240450 3.136590 6.681270
O 6.156120 2.409460 8.733720
O 6.343000 1.936580 10.331100
O 7.105440 1.369010 10.271800
O 7.420170 2.176780 10.449300
O 6.433640 2.003540 11.432400
O 7.776000 2.253940 11.296800
O 8.663220 2.556860 11.492800
O 7.814590 1.792690 12.297400
O 7.082010 1.393570 11.860800
O 8.617180 1.628130 11.737800
O 0.992871 2.260200 6.723410
O 1.542570 25.944300 5.685020
O 1.813100 26.252800 4.852650
O 4.095250 26.831400 4.989290
O 3.468700 26.068200 4.981020
O 3.275950 27.025300 4.588690
O 2.648950 26.253400 4.423120
O 1.093790 25.939200 6.562760
O 0.786158 26.894200 7.031890
O 2.110770 29.046000 3.638000
O 2.140060 28.310100 4.269780
O 1.835980 30.293200 3.951530
O 1.965710 29.356700 4.563030
O 2.812060 27.812500 4.812480
O 1.444200 30.120300 4.811240
O 1.041600 28.055400 6.261010
O 32.542700 1.896440 6.012810
O 32.873100 1.066920 6.267290
O 32.464000 2.561720 6.699370
O 32.579800 26.448500 6.408880
O 32.733700 25.911400 7.161760
O 32.703100 27.675000 6.766850
O 32.742800 28.663000 6.075050
O 32.395200 29.119600 5.262500
O 32.693000 30.825500 5.160680
O 32.392500 29.992900 4.854800
O 32.590600 31.422800 5.934350
O 32.862900 32.285600 6.265100
O 31.901200 32.166200 6.585690
O 31.991400 33.065000 6.470370
O 3.901260 3.249470 7.681850
O 4.873690 3.108640 7.719770
O 5.804980 2.944830 7.847810
O 4.572170 4.299390 7.052890
O 3.468870 3.346950 8.633620
O 3.336510 3.983750 7.918160
O 2.800200 3.297290 9.342670
O 2.747560 4.170190 8.908900
O 4.393300 4.073250 7.994110
O 3.306180 4.904490 9.099500
O 4.009530 4.348390 8.895690
O 4.897120 4.537500 8.659630
O 8.204420 4.664030 1.458230
O 8.962910 5.043210 2.024940
O 8.175920 5.570790 3.491630
O 8.163690 4.962170 2.544740
O 8.465040 5.871740 2.596730
O 8.764260 5.184660 4.127120
O 7.768040 4.045770 4.583440
O 7.849650 5.011910 4.471540
O 7.727960 4.514150 5.464900
O 6.999460 3.891290 6.574370
O 7.460110 3.326630 7.702090
O 6.539830 3.623110 7.485600
O 7.356120 4.258030 7.368880
O 7.752580 4.392160 6.410450
O 6.342470 3.516170 8.421950
O 7.909100 5.360380 32.941200
O 7.949440 4.507090 32.469500
O 8.765660 4.964220 33.065600
O 2.506390 5.869640 6.497040
O 2.859720 4.961550 6.561670
O 3.570260 4.946660 7.214330
O 3.321550 5.851170 7.349020
O 5.978040 5.358780 7.619420
O 5.434750 4.916490 6.826530
O 5.310830 4.766700 7.745260
O 4.594310 5.343430 7.081020
O 2.047610 7.554040 5.916420
O 1.920330 6.555140 6.088080
O 4.218060 6.122740 7.457850
O 7.573370 1.002450 7.463760
O 7.718440 1.970500 7.460220
O 6.332910 5.518810 6.709700
O 6.772340 6.026010 7.478760
O 8.293930 2.275660 8.257070
O 8.819860 2.955060 8.656570
O 9.236550 3.539130 9.397820
O 8.585950 4.239170 9.530350
O 8.942240 5.927530 9.362530
O 9.427980 5.288850 8.749430
O 9.222920 4.951170 9.676730
O 7.536210 6.585420 7.315600
O 7.147970 6.122620 6.586520
O 7.365980 6.488950 8.250390
O 7.663240 6.945580 9.056700
O 8.568140 6.819240 9.430250
O 7.740240 32.753500 8.179890
O 7.199080 31.952200 8.403430
O 6.599430 31.403700 7.927620
O 0.728512 4.306010 9.561200
O 2.150990 5.282550 8.764690
O 1.359740 4.830480 9.013900
O 1.273920 4.455230 10.343900
O 27.237100 1.783540 8.668070
O 27.601700 2.613540 8.995710
O 26.807800 3.944960 9.135180
O 27.655700 4.434710 8.933640
O 28.516900 2.053630 7.828810
O 29.177300 2.844880 7.732860
O 29.738200 3.717510 7.693760
O 31.152600 4.011830 7.678260
O 30.292700 4.410450 7.411540
O 29.307600 2.153840 8.385790
O 27.904200 1.405860 8.152060
O 28.260100 2.794970 9.632320
O 28.144600 3.621730 8.983940
O 28.844600 3.757620 9.586570
O 29.962700 2.985230 8.239690
O 30.476000 3.863910 8.339370
O 31.227900 3.975760 8.855800
O 32.033800 3.968620 9.416960
O 30.337500 5.173480 7.964050
O 31.185200 4.881100 8.179440
O 31.350300 5.411170 9.167850
O 32.031300 4.754570 8.902090
O 29.059500 2.971240 10.097600
O 31.459300 5.517400 10.113400
O 32.114000 4.838580 9.969490
O 32.948900 5.097010 10.504300
O 0.723984 3.039840 9.101930
O 27.105700 1.777460 7.545180
O 27.108700 1.138570 6.710420
O 26.882400 2.667700 7.177350
O 26.481100 3.347390 7.665440
O 27.562800 2.451280 7.964120
O 27.118000 3.309380 8.358750
O 29.403800 2.006880 7.197690
O 28.271800 2.279350 6.676150
O 27.921500 1.495050 7.110730
O 30.186700 2.096270 7.759350
O 30.596900 2.015950 6.885770
O 31.305200 2.403800 7.379020
O 28.207600 2.884510 7.387420
O 29.074700 2.792470 6.336310
O 28.984800 3.511850 6.952860
O 28.433400 4.279060 6.985290
O 29.890200 2.833430 6.962250
O 30.743200 3.117400 7.625110
O 29.128400 4.533230 7.612170
O 32.718700 2.335810 9.615750
O 27.893600 3.589710 7.952020
O 31.537300 3.092960 8.122140
O 32.367700 3.384850 8.607080
O 28.193300 4.516730 8.037340
O 32.634600 3.942640 10.352900
O 32.397700 3.031310 10.183400
O 32.511300 3.704150 11.327400
O 32.281800 4.551850 11.075000
O 31.917100 5.447180 11.072800
O 5.675880 5.205810 8.574410
O 5.272210 5.146400 9.472380
O 6.011050 5.195880 10.706200
O 4.924570 5.566410 10.441800
O 5.638200 5.285500 11.582300
O 5.376130 6.126220 9.075820
O 5.520420 6.126850 10.014100
O 5.259820 6.134470 11.085500
O 6.164490 5.660260 9.304840
O 6.392830 5.841390 8.438900
O 6.414180 6.041120 10.431100
O 6.716940 5.598610 11.366600
O 6.400350 4.723830 11.688900
O 7.070370 7.778020 7.798470
O 6.561840 7.009480 7.847260
O 8.956220 7.217960 7.644170
O 8.100780 7.903750 7.315700
O 9.079790 8.173690 7.831180
O 6.239190 6.734310 9.659230
O 6.918360 6.262020 9.159520
O 6.168470 7.900120 9.340410
O 6.212620 6.871980 8.739540
O 6.968730 7.480160 9.377270
O 8.048020 7.172240 7.958180
O 6.345620 8.003780 8.377230
O 7.536090 7.915110 8.743190
O 8.103880 8.422420 8.121710
O 6.126910 6.284240 11.392000
O 7.294270 6.631340 9.940940
O 6.692190 6.894110 10.634800
O 1.358630 1.777470 9.972900
O 1.801600 2.490240 10.442400
O 0.835967 2.392620 10.622400
O 28.887500 1.031820 7.517510
O 29.793800 1.165110 7.896970
O 31.087700 2.127770 8.406540
O 30.558500 1.402660 8.489690
O 32.527100 1.387080 8.889220
O 31.640800 1.298140 9.202820
O 32.704600 1.055400 7.988160
O 31.813400 2.386940 8.907690
O 31.543400 3.096990 9.482290
O 31.211100 1.576280 10.242100
O 31.896900 1.272290 10.809500
O 32.280600 2.206380 10.821300
O 31.667100 2.389380 10.097600
O 32.883500 1.437920 10.229900
O 32.853000 1.798610 11.468600
O 32.096500 2.044480 12.010800
O 32.704800 2.801690 11.806900
O 32.207700 3.093440 12.584900
O 31.523200 2.923880 11.969700
O 29.764600 32.777000 8.445670
O 30.700300 32.854400 8.708830
O 32.185500 32.605400 9.322370
O 32.811300 32.648400 8.643560
O 30.490400 32.921600 10.301000
O 31.216500 32.996500 10.838900
O 31.294000 33.023600 9.796760
O 32.364400 33.061100 10.105200
O 3.130590 1.116510 10.684000
O 3.773260 0.732748 10.039700
O 4.446460 1.116210 10.608700
O 4.852970 29.110800 8.178260
O 5.795760 29.379100 8.187630
O 4.709000 30.586400 9.183830
O 5.692910 30.628600 9.250750
O 4.447760 29.817500 8.622760
O 4.676070 31.609900 9.447490
O 4.237350 31.699700 10.320100
O 4.626160 32.539000 10.400800
O 5.430840 31.353300 9.902310
O 8.870420 27.460800 1.953420
O 10.178300 26.931700 2.272630
O 9.827740 27.638400 1.716680
O 8.154230 27.480300 4.099630
O 9.006490 27.250700 3.841950
O 9.582740 26.533000 4.054560
O 10.133800 27.222100 3.675900
O 10.731100 26.762200 3.006140
O 8.793440 28.998700 1.381130
O 9.074630 29.473600 2.157130
O 9.175380 28.345300 1.964090
O 8.227260 27.894400 4.997380
O 8.447080 28.563400 5.649660
O 8.055210 29.395300 6.104060
O 6.591960 29.031600 7.715550
O 6.497040 30.024600 7.575770
O 7.011940 30.465400 6.948770
O 7.879480 30.138300 6.673830
O 2.246280 1.223920 12.070600
O 1.759620 1.659730 12.765600
O 4.010500 1.248150 12.120100
O 2.617910 2.062190 12.022900
O 3.163860 1.336050 11.768800
O 1.082570 2.068610 13.387100
O 1.673870 1.838940 14.076200
O 1.861540 0.760060 14.576300
O 2.605260 1.710230 14.311900
O 3.266490 1.032700 14.338000
O 4.137060 1.142600 14.795900
O 4.536330 2.044970 14.644800
O 4.681870 2.999070 14.580100
O 5.502100 2.554200 14.409900
O 5.542080 3.575280 14.674500
O 1.957610 0.732460 15.526900
O 1.056420 0.962957 15.618400
O 5.350630 3.578500 15.608700
O 5.404670 4.136500 16.411200
O 3.904130 32.195200 13.208800
O 4.321210 32.963800 12.814100
O 2.402840 32.819600 13.838400
O 3.211980 32.318300 13.871900
O 1.309920 32.473500 16.001900
O 6.300020 3.027130 15.091400
O 6.268710 3.033620 14.164100
O 6.279510 4.437820 16.648500
O 6.119580 3.211830 16.966000
O 6.821360 2.886230 17.456900
O 6.768380 3.844100 17.177000
O 5.845430 1.487040 13.127700
O 5.960760 2.862830 12.477000
O 5.032590 3.070560 12.493400
O 5.167830 3.878780 12.920100
O 6.056670 3.670230 13.170800
O 4.800090 1.072990 13.583600
O 5.953730 2.378660 13.428000
O 5.553090 1.464860 14.014500
O 6.671340 1.960920 12.724100
O 6.748810 1.002350 12.724700
O 8.342560 0.962078 12.794000
O 7.554070 2.571730 13.063800
O 6.892230 2.787190 12.296800
O 6.303000 1.930590 14.412100
O 7.013540 2.471610 14.686600
O 6.847800 2.170950 13.717200
O 6.849820 3.133150 13.321700
O 7.671340 2.832340 13.978000
O 7.832190 3.039560 14.845000
O 7.174280 2.733110 15.574200
O 7.147180 3.653280 15.257600
O 7.384950 3.028000 16.502100
O 6.642710 3.420130 16.078000
O 7.628400 32.282400 11.281600
O 7.253250 32.341400 10.400600
O 8.479270 32.639800 11.475100
O 7.521520 32.868300 13.038400
O 7.842500 33.074300 12.044700
O 8.552470 32.400400 12.622900
O 8.266550 32.473600 13.556900
O 2.063700 4.023150 12.006800
O 1.705820 4.149720 12.854900
O 4.015170 4.080940 13.051500
O 3.635900 3.572030 12.332100
O 3.022620 3.318560 11.639800
O 2.914650 4.273090 11.542400
O 1.269850 5.009380 13.017900
O 1.495960 5.842430 12.592700
O 2.754540 4.569850 12.412200
O 3.596080 3.729420 13.838900
O 2.875680 3.958550 14.434300
O 2.363380 6.555830 11.149300
O 3.068090 7.542590 10.398900
O 2.848830 6.599270 10.332900
O 2.927350 8.359470 10.933200
O 4.029250 11.370700 11.135900
O 4.954430 10.369500 11.342200
O 4.939300 11.338800 11.155300
O 0.926538 6.589420 12.363100
O 1.551640 6.583670 11.652700
O 2.971500 8.693030 11.837400
O 3.838150 8.759370 12.392800
O 3.772410 9.493830 11.803000
O 4.614790 9.774920 12.001200
O 4.773170 11.573200 9.493730
O 4.327570 11.832700 10.357700
O 5.847680 12.826800 10.144000
O 5.058210 12.466700 9.831090
O 6.325560 13.624500 10.338100
O 6.236020 14.539200 10.681100
O 5.145520 0.767096 14.821000
O 5.615830 1.723440 15.058500
O 5.564660 0.853940 16.499600
O 4.828230 1.385250 15.518900
O 5.629940 1.774480 16.295100
O 5.557700 2.731910 16.188100
O 4.230720 2.299350 17.553000
O 3.991350 1.345940 17.430400
O 4.902560 1.420360 17.197200
O 5.171240 2.467640 17.024600
O 6.046310 2.121760 17.202200
O 3.618890 3.040780 17.481200
O 5.910850 31.800500 13.113700
O 5.062670 32.202400 13.508600
O 5.750030 32.265400 14.495300
O 5.818010 32.840600 13.742000
O 5.707050 31.854500 15.328000
O 5.349720 32.295000 16.685600
O 4.817630 32.165100 15.209700
O 5.359320 32.763900 15.711100
O 4.668860 32.879400 16.931100
O 6.531150 2.474290 16.471000
O 6.280870 2.114200 15.631000
O 6.252950 30.286500 11.192000
O 7.236470 30.442300 11.284100
O 7.500300 30.843600 12.477400
O 6.685450 30.414000 12.134200
O 6.568490 32.490300 13.206000
O 6.991370 31.036600 13.299300
O 7.288560 31.951600 13.515200
O 1.618380 5.338100 14.940900
O 2.217790 4.572410 14.962400
O 1.466550 3.127780 16.601000
O 1.895180 3.873870 16.146300
O 2.337090 5.724870 15.397400
O 2.503160 4.549030 15.862000
O 2.103010 2.099290 18.018200
O 1.271780 1.717920 18.232700
O 2.398270 1.852700 17.112700
O 1.458180 2.179470 17.264800
O 0.745091 2.842010 17.222600
O 0.827689 2.572780 18.580300
O 0.748843 8.766990 12.533600
O 1.217630 9.534000 13.020500
O 0.942701 10.205800 12.308800
O 1.178580 11.183700 12.856700
O 1.606880 10.441100 13.237700
O 2.421450 6.531700 14.983000
O 0.854721 7.162580 14.609500
O 1.611230 6.631270 14.455800
O 1.477160 9.028540 13.856500
O 2.115110 9.663570 13.485800
O 2.200950 8.252710 14.643400
O 2.328080 8.631230 13.769400
O 1.207810 8.083880 14.659600
O 32.343100 2.203940 18.927000
O 32.165000 9.132120 13.006000
O 32.281900 8.715660 12.102000
O 32.756800 10.963300 12.385700
O 32.851900 9.316180 13.669900
O 3.122570 6.079400 16.777300
O 2.593780 5.346280 16.638000
O 2.157390 4.778470 18.334800
O 2.037050 5.622760 18.029600
O 1.673980 5.376940 16.938900
O 1.854510 4.102090 19.638300
O 2.139730 3.186610 19.444300
O 1.861080 3.165980 20.355400
O 2.575320 4.219700 18.973500
O 1.161790 2.412470 21.384200
O 1.007760 3.230670 20.884800
O 1.197650 6.151920 16.695500
O 3.318350 7.529450 16.629300
O 3.100020 6.793960 16.049100
O 0.950263 8.401370 15.998700
O 2.096640 6.316170 17.291700
O 2.560620 7.079440 17.006000
O 32.551000 1.575890 21.711000
O 32.701700 2.152630 20.963000
O 32.318200 2.119570 22.461200
O 32.702700 6.452380 16.746200
O 32.901100 7.412860 16.526800
O 32.796900 7.653230 15.623500
O 32.826000 9.697310 15.208700
O 33.010300 9.333990 16.072100
O 31.931300 10.438300 16.450400
O 32.018000 9.925350 15.668000
O 31.986200 10.895600 18.284900
O 32.171700 10.701400 17.349400
O 32.007200 10.322300 19.052500
O 6.024760 1.025850 17.465500
O 9.998420 2.203870 13.296900
O 10.545100 3.618820 13.231700
O 11.018300 2.785000 13.116400
O 9.028200 1.452670 14.645700
O 8.158780 1.076370 14.755500
O 9.955440 0.826352 14.501900
O 9.791830 1.894580 14.356700
O 10.752300 2.073400 13.803900
O 10.819900 1.116020 13.908200
O 10.204300 3.011920 13.865900
O 7.611970 1.132280 16.676900
O 7.864060 1.052360 15.701200
O 9.574270 2.075820 15.254000
O 8.622660 1.565320 15.605100
O 9.261130 2.043860 16.119900
O 8.456430 1.537310 16.576700
O 9.732700 1.091920 15.457100
O 9.707100 1.127480 16.533000
O 9.118600 2.091160 17.094100
O 9.262060 1.167780 17.360900
O 7.583870 33.044700 14.102200
O 6.812210 32.549300 14.275600
O 7.321760 32.916100 15.022900
O 10.286400 32.724500 13.663900
O 6.290830 32.247500 16.131700
O 6.524570 32.518400 15.246400
O 7.059460 33.005600 16.016600
O 8.985960 33.072000 16.053100
O 6.483860 32.707600 16.899700
O 4.292550 5.377420 17.924600
O 5.964590 5.605660 18.228200
O 5.310350 4.822920 18.168300
O 5.071090 5.815340 18.061800
O 4.558110 4.906380 18.778600
O 7.671230 2.319950 17.981400
O 7.049090 3.155260 18.418600
O 7.074690 4.057930 18.171900
O 6.822190 5.468900 17.916000
O 7.739580 5.535690 18.290600
O 6.254910 4.311740 18.599900
O 6.152420 4.630010 17.670000
O 7.216950 2.322690 18.822000
O 10.889500 7.284870 15.007000
O 9.092190 7.861810 16.691700
O 11.394200 6.276640 16.208900
O 10.040100 7.674110 15.209700
O 9.986100 7.378720 16.122600
O 9.971560 8.244510 16.435500
O 9.313200 7.042220 17.099000
O 9.063420 6.752940 17.954500
O 8.184350 6.391670 18.246700
O 10.539600 6.730720 18.046900
O 11.369100 6.466250 18.524800
O 11.202900 6.360830 17.198800
O 12.002300 5.779380 18.185900
O 11.770000 7.058570 14.657600
O 11.863300 6.651390 15.480600
O 12.006500 6.688420 17.620100
O 12.760900 6.353530 18.199500
O 2.811580 1.482590 19.699900
O 3.382620 1.968890 20.333400
O 1.758100 1.617530 21.965000
O 1.161370 1.327980 21.303700
O 3.306350 2.394460 21.990200
O 3.672480 1.852330 21.216400
O 2.566990 1.988600 22.366700
O 3.653880 26.597400 16.535500
O 2.803520 27.023400 16.647800
O 3.598650 27.195500 17.325800
O 0.807402 28.091900 16.167800
O 1.510680 28.471200 16.770300
O 2.112160 27.711300 16.749800
O 3.134060 28.669100 18.360900
O 3.563390 28.103400 17.715700
O 1.122010 30.900500 17.946300
O 1.369400 31.765000 18.263100
O 3.184150 28.405500 19.215400
O 1.870010 31.133500 18.761100
O 2.241880 32.004000 18.883700
O 2.922780 32.917000 19.884000
O 2.771150 32.727300 18.958900
O 30.997200 29.028700 16.850200
O 32.342100 28.653600 16.281700
O 31.595900 28.317100 16.656400
O 31.749100 29.568600 17.115300
O 32.126700 29.773300 17.963700
O 32.787000 30.368000 17.656500
O 32.834000 32.999700 20.976400
O 32.736000 32.062700 21.326600
O 4.468920 1.989080 19.591900
O 5.274370 2.028210 20.054100
O 5.705390 1.231030 20.359100
O 3.985740 2.838230 19.699500
O 3.817020 3.456320 20.451000
O 3.909860 4.372050 20.426100
O 3.716940 5.505510 20.362700
O 4.611910 5.411540 20.191500
O 5.441450 5.996370 20.448900
O 5.579210 1.870500 21.119000
O 3.514270 4.937930 21.120900
O 5.739350 5.143720 20.803500
O 5.739600 4.572030 21.546600
O 5.264580 32.146800 18.586300
O 5.711120 32.298500 17.695300
O 6.689160 0.761619 20.789500
O 6.918100 1.019570 22.168300
O 7.164710 1.792710 21.686800
O 7.565240 1.156720 20.858900
O 6.212980 2.508940 21.315000
O 8.298120 1.340020 21.423100
O 7.002530 3.438980 21.786400
O 7.102450 2.660380 21.258700
O 7.036720 2.590600 22.278400
O 6.668290 4.558900 21.384700
O 6.659370 32.413500 17.861500
O 6.380410 32.100000 18.798400
O 7.196480 32.706000 20.082600
O 7.176960 32.524400 19.139000
O 7.712580 33.027500 21.770500
O 2.172450 4.196230 21.944200
O 2.722110 3.435550 22.224600
O 4.257200 4.233790 22.132000
O 2.307120 5.983270 21.463300
O 2.486880 4.715620 21.232400
O 2.490130 5.527350 20.624300
O 3.301590 4.188870 22.327000
O 4.449750 4.612710 23.013400
O 5.393900 5.334280 22.923800
O 5.299110 4.486620 22.551900
O 5.143290 6.084400 22.337300
O 2.268560 6.256490 22.390900
O 3.309130 7.394260 24.055600
O 3.547310 6.699820 23.450600
O 3.206220 6.319530 22.627200
O 5.391850 6.766140 23.010000
O 2.434330 8.570380 22.923500
O 1.817370 9.287110 22.829400
O 1.145730 9.449050 23.491400
O 3.080210 8.481200 23.643900
O 1.696100 10.772000 22.648900
O 0.973697 10.204400 23.004000
O 3.470370 8.215050 24.491100
O 7.354020 5.892100 22.475500
O 7.586670 4.689000 23.687100
O 7.932980 5.263840 23.041700
O 7.005060 7.016640 23.165200
O 6.111650 7.446530 22.897400
O 7.628860 7.193390 22.441500
O 8.117610 6.405550 22.670300
O 0.962072 5.921450 20.997800
O 0.840220 3.423790 23.124100
O 1.431960 5.916390 24.071200
O 1.919010 5.113970 23.858500
O 0.794844 5.612500 24.900600
O 1.545290 5.047440 24.775200
O 0.730168 6.693970 24.028100
O 30.993100 3.845680 20.245900
O 31.302600 4.459790 19.565400
O 32.259400 4.522250 19.587000
O 30.732600 3.750840 22.131700
O 30.429100 4.149060 20.999200
O 30.397200 5.638610 20.982500
O 30.751900 4.889470 21.487800
O 31.296300 5.806620 20.790400
O 32.259800 5.899510 20.564700
O 32.624000 5.396900 21.324500
O 30.184900 3.628200 23.443800
O 31.119500 3.241540 22.875900
O 32.352800 3.660650 22.706700
O 32.734100 2.654080 23.430100
O 31.770000 2.691700 23.089500
O 30.422800 4.349090 22.797600
O 32.337500 5.171750 23.762100
O 32.306100 4.507130 23.091500
O 32.390100 5.905280 24.387200
O 32.733200 6.569960 21.379000
O 32.718600 6.832990 22.276700
O 32.565700 6.358490 23.332800
O 32.804600 7.231550 23.149900
O 4.227840 1.376900 23.619500
O 3.564430 1.495430 24.261600
O 3.286000 0.840097 26.341500
O 3.581150 1.755120 26.570500
O 5.204290 0.953906 26.544600
O 4.399170 1.358660 26.800300
O 3.043210 31.522000 21.914200
O 2.743130 30.818400 23.540800
O 2.847490 30.813100 22.543500
O 3.924380 31.684400 22.407600
O 3.861530 32.360500 23.097700
O 4.432520 32.818800 23.657500
O 2.109310 29.265200 25.595000
O 2.434960 31.133100 24.927000
O 2.365460 30.360500 25.520000
O 2.514770 30.350100 24.343000
O 2.862760 29.601000 25.135600
O 2.796450 32.993800 25.547900
O 3.187470 33.045900 24.637900
O 2.372960 28.482000 26.124600
O 2.074790 28.756100 26.996100
O 1.236550 29.188300 27.604800
O 2.817160 29.337300 26.136800
O 3.672600 30.180400 27.281000
O 4.680080 32.727600 27.011600
O 1.619910 28.354300 27.732900
O 2.054360 29.505700 28.045500
O 2.313470 30.429100 28.025100
O 3.274380 30.539200 28.051900
O 4.324160 29.690800 27.756700
O 2.022510 3.567760 23.430800
O 5.914420 2.582650 23.678900
O 1.770120 3.637840 24.378300
O 2.425980 3.482500 25.074300
O 5.192950 2.927530 24.225400
O 5.852470 3.613900 24.304800
O 5.299100 3.961900 24.985000
O 2.364520 4.430650 24.852300
O 2.974320 4.858450 24.286100
O 3.748270 4.949000 24.865900
O 4.488010 4.429650 25.232200
O 6.660580 3.094820 23.337800
O 7.582200 3.220280 23.425800
O 8.631580 2.731410 23.718500
O 8.494710 2.234250 24.824000
O 8.653670 1.957930 25.737200
O 7.803760 2.635490 24.171100
O 8.942060 3.045880 24.539000
O 9.025110 1.879440 27.639700
O 9.417110 1.059090 26.504800
O 9.557790 1.837100 26.048300
O 9.313720 0.986445 27.480200
O 8.922370 2.739270 27.904400
O 8.902860 3.639980 28.247500
O 8.673030 4.606700 28.970800
O 9.110200 5.411510 29.308900
O 8.858710 4.524650 27.986400
O 8.997070 4.744390 30.076900
O 9.856080 6.031250 29.933500
O 9.839510 5.110610 30.358400
O 1.338550 1.663470 25.391800
O 1.112880 1.465790 26.311100
O 1.133290 31.905000 25.595000
O 2.138210 32.024400 25.742100
O 1.268390 31.855100 26.621600
O 2.181920 32.058900 26.662100
O 0.786083 32.627800 26.275100
O 32.672200 0.990911 26.609400
O 28.792700 32.374600 21.133700
O 28.068400 31.942400 22.055800
O 28.778300 32.625400 22.082600
O 27.922800 32.720800 21.376700
O 28.608500 31.964700 23.135100
O 27.806800 31.525000 22.902600
O 27.740700 32.793400 22.301600
O 28.702500 32.940400 23.222200
O 29.185100 32.970100 24.121000
O 28.718600 32.617400 25.144100
O 28.976800 32.035900 24.100400
O 29.529100 32.286100 24.814000
O 31.850900 31.401800 24.911400
O 31.539700 32.263800 24.560200
O 31.729500 32.287100 25.520600
O 32.643300 32.204200 25.290600
O 31.498700 31.384700 25.839600
O 29.179200 32.942100 25.923900
O 30.750000 31.970500 26.387700
O 31.120300 32.072300 27.225900
O 29.966700 32.480100 26.390000
O 31.597300 31.331300 26.801500
O 3.166150 5.254750 25.705600
O 3.759160 2.809680 26.913900
O 3.324410 3.628770 27.420400
O 5.903910 3.530000 27.193900
O 5.022640 3.407300 27.411900
O 4.352750 2.701750 27.648000
O 3.635850 5.943870 26.133800
O 3.100250 4.426900 26.968200
O 2.544540 4.906960 26.366200
O 5.481270 5.807220 26.336900
O 4.551070 5.701080 25.987500
O 5.551560 6.271910 25.508800
O 5.546330 9.010390 25.649300
O 5.721400 9.984670 25.830000
O 6.604670 2.895010 26.998200
O 7.020810 2.623200 27.838100
O 6.521060 10.118600 22.827200
O 7.470820 10.050000 22.800000
O 6.877400 10.529500 23.617900
O 7.911200 10.838300 23.113000
O 8.489570 11.426000 23.673100
O 6.743730 7.249250 25.700200
O 6.481920 6.277880 25.815200
O 6.355520 9.575940 25.219400
O 6.682760 10.154900 24.537700
O 6.477540 7.884290 26.383500
O 6.237320 8.809730 26.347800
O 8.443890 12.383200 23.668600
O 8.884730 13.115700 24.142400
O 8.028400 13.289600 24.640800
O 1.116980 3.587200 27.510400
O 0.750892 3.047820 26.636500
O 1.625310 2.967680 26.933900
O 0.844258 3.572410 28.416600