LAMMPS (3 Mar 2020)
OMP_NUM_THREADS environment is not set. Defaulting to 1 thread. (src/comm.cpp:94)
  using 1 OpenMP thread(s) per MPI task
Reading restart file ...
  restart file = 3 Mar 2020, LAMMPS = 3 Mar 2020
  restoring atom style full from restart
  orthogonal box = (0.619475 0.619475 0.619475) to (33.1705 33.1705 33.1705)
  6 by 6 by 6 MPI processor grid
  restoring pair style hybrid/overlay from restart
  restoring bond style fene from restart
  27950 atoms
  8700 bonds
Finding 1-2 1-3 1-4 neighbors ...
  special bond factors lj:   0          1          1         
  special bond factors coul: 0          1          1         
  2 = max # of 1-2 neighbors
  6 = max # of special neighbors
  special bonds CPU = 2.48249 secs
  read_restart CPU = 2.61431 secs
Resetting global fix info from restart file:
  fix style: nvt, fix ID: pt
50 rigid bodies with 950 atoms
Resetting global fix info from restart file:
  fix style: rigid/nvt, fix ID: ri
System init for write_data ...
PPPM initialization ...
  using 12-bit tables for long-range coulomb (src/kspace.cpp:332)
  G vector (1/distance) = 1.24849
  grid = 125 125 125
  stencil order = 5
  estimated absolute RMS force accuracy = 0.000124849
  estimated relative force accuracy = 0.000124849
  using double precision FFTW3
  3d grid and FFT values/proc = 19683 9625
All restart file global fix info was re-assigned
Unused restart file peratom fix info:
  fix style: STORE, fix ID: par_COMPUTE_STORE
WARNING: Neighbor exclusions used with KSpace solver may give inconsistent Coulombic energies (src/neighbor.cpp:486)
Neighbor list info ...
  update every 1 steps, delay 0 steps, check yes
  max neighbors/atom: 2000, page size: 100000
  master list distance cutoff = 2.8
  ghost atom cutoff = 2.8
  binsize = 1.4, bins = 24 24 24
  2 neighbor lists, perpetual/occasional/extra = 2 0 0
  (1) pair lj/cut, perpetual
      attributes: half, newton on
      pair build: half/bin/newton
      stencil: half/bin/3d/newton
      bin: standard
  (2) pair coul/long, perpetual, skip from (1)
      attributes: half, newton on
      pair build: skip
      stencil: none
      bin: none
PPPM initialization ...
  using 12-bit tables for long-range coulomb (src/kspace.cpp:332)
  G vector (1/distance) = 1.24849
  grid = 125 125 125
  stencil order = 5
  estimated absolute RMS force accuracy = 0.000124849
  estimated relative force accuracy = 0.000124849
  using double precision FFTW3
  3d grid and FFT values/proc = 19683 9625
WARNING: Neighbor exclusions used with KSpace solver may give inconsistent Coulombic energies (src/neighbor.cpp:486)
Neighbor list info ...
  update every 1 steps, delay 0 steps, check yes
  max neighbors/atom: 2000, page size: 100000
  master list distance cutoff = 2.8
  ghost atom cutoff = 2.8
  binsize = 1.4, bins = 24 24 24
  2 neighbor lists, perpetual/occasional/extra = 2 0 0
  (1) pair lj/cut, perpetual
      attributes: half, newton on
      pair build: half/bin/newton
      stencil: half/bin/3d/newton
      bin: standard
  (2) pair coul/long, perpetual, skip from (1)
      attributes: half, newton on
      pair build: skip
      stencil: none
      bin: none
Setting up Verlet run ...
  Unit style    : lj
  Current step  : 12000000
  Time step     : 0.005
Per MPI rank memory allocation (min/avg/max) = 11.01 | 11.13 | 11.28 Mbytes
Step Temp Press Volume 
12000000    0.7975666  -0.29194834    34490.143 
12010000   0.80529816  -0.24545032    34490.143 
12020000   0.80027439  -0.23654759    34490.143 
12030000   0.80495976  -0.29374663    34490.143 
12040000   0.79785844  -0.22405599    34490.143 
12050000   0.79482063  -0.21829532    34490.143 
12060000   0.80186159  -0.30538989    34490.143 
12070000   0.80670615  -0.26950172    34490.143 
12080000   0.79969827   -0.2348018    34490.143 
12090000   0.80245162  -0.22542784    34490.143 
12100000   0.80110811   -0.2270002    34490.143 
12110000   0.80599541  -0.31182441    34490.143 
12120000   0.80102755  -0.29338892    34490.143 
12130000   0.79896815  -0.21717839    34490.143 
12140000   0.79561556  -0.24628116    34490.143 
12150000    0.7938624  -0.26923064    34490.143 
12160000   0.80182036  -0.28996692    34490.143 
12170000   0.79836015  -0.24495567    34490.143 
12180000   0.80350787  -0.24574957    34490.143 
12190000   0.80060535  -0.25069428    34490.143 
12200000   0.79721264  -0.26585751    34490.143 
12210000   0.79687687  -0.27300019    34490.143 
12220000   0.79569574  -0.18259543    34490.143 
12230000   0.80045431  -0.25508725    34490.143 
12240000   0.79835502  -0.27804855    34490.143 
12250000   0.80315089  -0.27297926    34490.143 
12260000   0.79971605  -0.21665853    34490.143 
12270000   0.79662146  -0.31208049    34490.143 
12280000   0.80548768  -0.26126929    34490.143 
12290000   0.80258569  -0.30033944    34490.143 
12300000   0.81009147   -0.2339067    34490.143 
12310000   0.79797217  -0.29783984    34490.143 
12320000   0.80670046  -0.29306511    34490.143 
12330000   0.80040461  -0.21545076    34490.143 
12340000   0.79565483  -0.27967773    34490.143 
12350000   0.80030077  -0.24030595    34490.143 
12360000   0.79343912  -0.27166299    34490.143 
12370000   0.79541458  -0.25837755    34490.143 
12380000   0.80208252    -0.315608    34490.143 
12390000   0.79793066  -0.32719412    34490.143 
12400000    0.7922041  -0.31180987    34490.143 
12410000   0.80128901  -0.29322254    34490.143 
12420000   0.80302188  -0.27585308    34490.143 
12430000   0.80278811  -0.28647589    34490.143 
12440000   0.80599517  -0.23817949    34490.143 
12450000   0.79507173  -0.26407537    34490.143 
12460000   0.80178846  -0.29412317    34490.143 
12470000    0.7949635  -0.26554598    34490.143 
12480000   0.80011054  -0.28360673    34490.143 
12490000   0.80174025  -0.20599457    34490.143 
12500000   0.79680612  -0.23988476    34490.143 
12510000   0.80653156  -0.29324823    34490.143 
12520000   0.79266613  -0.23584854    34490.143 
12530000   0.80080253  -0.20985934    34490.143 
12540000   0.80089367   -0.2482598    34490.143 
12550000   0.80272671  -0.22295055    34490.143 
12560000   0.79821981  -0.31654151    34490.143 
12570000   0.80066659  -0.28220183    34490.143 
12580000   0.80194104  -0.21489828    34490.143 
12590000   0.79560129  -0.35284377    34490.143 
12600000   0.79184229   -0.2797552    34490.143 
12610000   0.79679867  -0.22562974    34490.143 
12620000   0.79597629  -0.25624574    34490.143 
12630000   0.79410259   -0.2762389    34490.143 
12640000   0.79956054  -0.27488524    34490.143 
12650000    0.7920961  -0.22530003    34490.143 
12660000    0.8011795   -0.2055108    34490.143 
12670000   0.79936327  -0.21613244    34490.143 
12680000   0.80466624  -0.26639594    34490.143 
12690000    0.8001535  -0.24712878    34490.143 
12700000   0.79739026   -0.2790123    34490.143 
12710000   0.79817327  -0.25611962    34490.143 
12720000   0.79724853   -0.2294977    34490.143 
12730000   0.80156993  -0.25559298    34490.143 
12740000   0.80507363  -0.25373363    34490.143 
12750000   0.79983841  -0.27809366    34490.143 
12760000   0.79890508  -0.23448942    34490.143 
12770000   0.79958551  -0.26931169    34490.143 
12780000   0.80221264   -0.2785612    34490.143 
12790000   0.79599255  -0.24158287    34490.143 
12800000   0.79902177  -0.30106511    34490.143 
12810000   0.79980054  -0.16417243    34490.143 
12820000   0.80699941  -0.26932314    34490.143 
12830000   0.79438068  -0.23342474    34490.143 
12840000   0.79879099  -0.29061878    34490.143 
12850000   0.80358869  -0.24898917    34490.143 
12860000   0.79386657  -0.34151678    34490.143 
12870000   0.79922114  -0.25097092    34490.143 
12880000   0.79781379  -0.22136783    34490.143 
12890000    0.8001868  -0.29877452    34490.143 
12900000   0.80202815  -0.18516173    34490.143 
12910000   0.79891356  -0.27518616    34490.143 
12920000   0.80195576  -0.29872075    34490.143 
12930000   0.80569283  -0.29045078    34490.143 
12940000   0.79669932  -0.27888299    34490.143 
12950000   0.79787783  -0.21859436    34490.143 
12960000     0.802377  -0.24734378    34490.143 
12970000   0.79967236  -0.24485561    34490.143 
12980000   0.79980642  -0.27437706    34490.143 
12990000   0.80194046  -0.21617178    34490.143 
13000000   0.80491326  -0.24742518    34490.143 
Loop time of 16083.6 on 216 procs for 1000000 steps with 27950 atoms

Performance: 26859.670 tau/day, 62.175 timesteps/s
99.7% CPU use with 216 MPI tasks x 1 OpenMP threads

MPI task timing breakdown:
Section |  min time  |  avg time  |  max time  |%varavg| %total
---------------------------------------------------------------
Pair    | 184.71     | 226.64     | 313.44     | 144.4 |  1.41
Bond    | 1.5382     | 2.3861     | 3.3754     |  20.3 |  0.01
Kspace  | 14745      | 14907      | 14994      |  38.9 | 92.68
Neigh   | 115.21     | 120.32     | 126.52     |  21.3 |  0.75
Comm    | 294.44     | 353.64     | 492.52     | 198.0 |  2.20
Output  | 0.013308   | 0.016207   | 0.029024   |   1.2 |  0.00
Modify  | 321.95     | 364.78     | 427.17     | 104.7 |  2.27
Other   |            | 109.1      |            |       |  0.68

Nlocal:    129.398 ave 197 max 109 min
Histogram: 22 88 60 22 10 7 4 2 0 1
Nghost:    957.162 ave 1086 max 888 min
Histogram: 19 43 36 36 32 27 10 8 4 1
Neighs:    4788.82 ave 9477 max 3587 min
Histogram: 49 90 33 19 12 6 3 3 0 1

Total # of neighbors = 1034385
Ave neighs/atom = 37.0084
Ave special neighs/atom = 0.62254
Neighbor list builds = 134450
Dangerous builds = 0
PPPM initialization ...
  using 12-bit tables for long-range coulomb (src/kspace.cpp:332)
  G vector (1/distance) = 1.24849
  grid = 125 125 125
  stencil order = 5
  estimated absolute RMS force accuracy = 0.000124849
  estimated relative force accuracy = 0.000124849
  using double precision FFTW3
  3d grid and FFT values/proc = 19683 9625
WARNING: Neighbor exclusions used with KSpace solver may give inconsistent Coulombic energies (src/neighbor.cpp:486)
Neighbor list info ...
  update every 1 steps, delay 0 steps, check yes
  max neighbors/atom: 2000, page size: 100000
  master list distance cutoff = 2.8
  ghost atom cutoff = 2.8
  binsize = 1.4, bins = 24 24 24
  7 neighbor lists, perpetual/occasional/extra = 2 5 0
  (1) pair lj/cut, perpetual
      attributes: half, newton on
      pair build: half/bin/newton
      stencil: half/bin/3d/newton
      bin: standard
  (2) pair coul/long, perpetual, skip from (1)
      attributes: half, newton on
      pair build: skip
      stencil: none
      bin: none
  (3) compute rdf, occasional, copy from (1)
      attributes: half, newton on
      pair build: copy
      stencil: none
      bin: none
  (4) compute rdf, occasional, copy from (1)
      attributes: half, newton on
      pair build: copy
      stencil: none
      bin: none
  (5) compute rdf, occasional, copy from (1)
      attributes: half, newton on
      pair build: copy
      stencil: none
      bin: none
  (6) compute rdf, occasional, copy from (1)
      attributes: half, newton on
      pair build: copy
      stencil: none
      bin: none
  (7) compute rdf, occasional, copy from (1)
      attributes: half, newton on
      pair build: copy
      stencil: none
      bin: none
Setting up Verlet run ...
  Unit style    : lj
  Current step  : 0
  Time step     : 0.005
Per MPI rank memory allocation (min/avg/max) = 19.62 | 20.2 | 20.83 Mbytes
Step Temp Press PotEng KinEng E_pair E_bond TotEng 
       0   0.80491326  -0.25299928    1.9003516    1.1706088   -4.5119134     6.412265    3.0709604 
   10000   0.80076967  -0.24465801    1.9077538    1.1645827   -4.5099048    6.4176587    3.0723365 
   20000   0.80125871  -0.28069472    1.9034702    1.1652939   -4.5123291    6.4157993    3.0687641 
   30000   0.79752759  -0.30393144    1.9058243    1.1598676   -4.5092212    6.4150455    3.0656919 
   40000   0.79909661   -0.2548012    1.9027325    1.1621495   -4.5114288    6.4141613     3.064882 
   50000   0.80113336  -0.18911646    1.9107825    1.1651116   -4.5068931    6.4176756    3.0758941 
   60000   0.80211876  -0.23397025     1.904401    1.1665447   -4.5079853    6.4123863    3.0709457 
   70000   0.79733272  -0.29552835    1.9050306    1.1595842   -4.5092514     6.414282    3.0646148 
   80000   0.79649172  -0.27208753    1.8991483    1.1583611   -4.5147127     6.413861    3.0575094 
   90000   0.79964243  -0.28359604    1.9099611    1.1629433   -4.5038996    6.4138607    3.0729045 
  100000   0.80816588  -0.20395186    1.9052714    1.1753392   -4.5086091    6.4138805    3.0806106 
  110000   0.80180201  -0.29531125    1.8973229     1.166084   -4.5161907    6.4135136    3.0634069 
  120000   0.80188117   -0.1967355    1.9157146    1.1661992   -4.5021987    6.4179133    3.0819138 
  130000   0.80024365  -0.28391143    1.9007892    1.1638177   -4.5127992    6.4135884    3.0646069 
  140000   0.79098078  -0.23297578    1.9024516    1.1503464   -4.5107359    6.4131875     3.052798 
  150000    0.8007271  -0.33186397    1.8914548    1.1645208   -4.5228164    6.4142712    3.0559755 
  160000    0.8021913  -0.22737888    1.9117798    1.1666502   -4.5030929    6.4148727      3.07843 
  170000   0.80313272  -0.23621773    1.9034697    1.1680193   -4.5102061    6.4136758    3.0714891 
  180000   0.79868582  -0.28218336    1.9002328    1.1615521   -4.5138899    6.4141227    3.0617849 
  190000   0.80710551  -0.23102984    1.9055662    1.1737971   -4.5085528     6.414119    3.0793633 
  200000   0.80160641  -0.30222698    1.8991292    1.1657996   -4.5140463    6.4131755    3.0649288 
  210000   0.80402809  -0.31242213    1.9119342    1.1693215   -4.5037622    6.4156964    3.0812557 
  220000   0.79853523   -0.2848108    1.8999385    1.1613331   -4.5162474    6.4161859    3.0612716 
  230000   0.80234555  -0.22807259    1.9106962    1.1668745   -4.5046292    6.4153254    3.0775707 
  240000    0.7857771  -0.31449629    1.9101122    1.1427785   -4.5054161    6.4155283    3.0528908 
  250000   0.80185463  -0.28502357    1.9049178    1.1661606   -4.5097257    6.4146435    3.0710783 
  260000    0.8000661   -0.2708237    1.9045213    1.1635595   -4.5109985    6.4155198    3.0680808 
  270000   0.80460309  -0.25867064    1.8996936    1.1701577    -4.514149    6.4138426    3.0698514 
  280000   0.80316787  -0.26600846    1.8971473    1.1680705   -4.5183598     6.415507    3.0652177 
  290000   0.80726036  -0.29925074    1.8998095    1.1740223   -4.5135873    6.4133968    3.0738318 
  300000   0.80091199  -0.29229428    1.8997026    1.1647897   -4.5158505    6.4155532    3.0644923 
  310000   0.79840544  -0.26354283    1.9118969    1.1611443   -4.5002349    6.4121318    3.0730412 
  320000   0.80234421  -0.25358258    1.9016855    1.1668726   -4.5127973    6.4144828    3.0685581 
  330000    0.8031613  -0.25285318    1.9073323    1.1680609   -4.5082713    6.4156036    3.0753932 
  340000   0.79849462  -0.22380009     1.904301     1.161274   -4.5119748    6.4162757     3.065575 
  350000   0.80642146  -0.26609484    1.9160567    1.1728022   -4.5017508    6.4178075    3.0888589 
  360000   0.80061432  -0.30352398    1.8983235    1.1643568   -4.5145308    6.4128543    3.0626803 
  370000    0.7958091  -0.19844582    1.9132932    1.1573684   -4.5010625    6.4143557    3.0706615 
  380000    0.8005421  -0.28041349    1.8983681    1.1642517    -4.516156    6.4145241    3.0626198 
  390000   0.80023821   -0.2949223    1.9064473    1.1638098   -4.5076609    6.4141082    3.0702571 
  400000    0.7980624  -0.29638961    1.9068535    1.1606454   -4.5102283    6.4170818    3.0674989 
  410000   0.80053271  -0.26620258     1.910598    1.1642381   -4.5025966    6.4131946     3.074836 
  420000   0.80335164  -0.29828957    1.9039957    1.1683377   -4.5100089    6.4140046    3.0723334 
  430000   0.79645922  -0.22181098    1.8999452    1.1583139   -4.5137214    6.4136665     3.058259 
  440000   0.79620637  -0.25463503    1.9015098    1.1579461   -4.5127464    6.4142562    3.0594559 
  450000   0.79984291   -0.2856497    1.9060796    1.1632349   -4.5110716    6.4171512    3.0693145 
  460000   0.79734843  -0.28619929    1.9051504    1.1596071   -4.5104754    6.4156258    3.0647574 
  470000   0.79618061  -0.27604335    1.9068082    1.1579087   -4.5060271    6.4128352    3.0647168 
  480000   0.79761207  -0.29708813    1.9020112    1.1599905   -4.5139346    6.4159459    3.0620017 
  490000   0.79612453  -0.24351837    1.9126112    1.1578271    -4.502871    6.4154823    3.0704383 
  500000   0.79745954  -0.27897712    1.9050902    1.1597687   -4.5071186    6.4122088    3.0648588 
  510000   0.79611305  -0.21550889    1.9018203    1.1578104    -4.510067    6.4118872    3.0596307 
  520000   0.79769705  -0.24025152     1.905198    1.1601141    -4.511204    6.4164019    3.0653121 
  530000   0.79841027  -0.29910173    1.9075819    1.1611513   -4.5052427    6.4128246    3.0687332 
  540000    0.8055749  -0.32008309    1.9028426    1.1715711   -4.5118808    6.4147234    3.0744136 
  550000   0.79484895  -0.25868598    1.9035529     1.155972   -4.5089124    6.4124653    3.0595249 
  560000   0.81237579  -0.23179162      1.90588    1.1814618   -4.5136822    6.4195622    3.0873418 
  570000   0.80018396  -0.29180737    1.9127125    1.1637309   -4.5034368    6.4161493    3.0764433 
  580000   0.79563642  -0.23835225    1.9103883    1.1571172   -4.5024126    6.4128009    3.0675055 
  590000   0.80214002  -0.28570776    1.9073009    1.1665756   -4.5101391      6.41744    3.0738765 
  600000   0.79826723  -0.30626015    1.8937684    1.1609433   -4.5194045    6.4131729    3.0547117 
  610000   0.80527338  -0.31209631       1.9074    1.1711326   -4.5076361    6.4150361    3.0785326 
  620000   0.79599052  -0.25955765    1.9016089    1.1576322   -4.5118325    6.4134414    3.0592411 
  630000   0.79729422   -0.2173904    1.9035333    1.1595282   -4.5107756    6.4143089    3.0630615 
  640000   0.79631499   -0.2718686    1.9015025    1.1581041   -4.5127007    6.4142031    3.0596066 
  650000   0.79491839  -0.22941459    1.9082101     1.156073   -4.5053161    6.4135262    3.0642831 
  660000   0.80047041   -0.1820329    1.9023199    1.1641475   -4.5123021    6.4146219    3.0664673 
  670000   0.79977537  -0.26417289    1.8994811    1.1631366   -4.5154359     6.414917    3.0626178 
  680000   0.80426594  -0.28759703    1.9062147    1.1696674    -4.509852    6.4160667    3.0758821 
  690000    0.7981038  -0.24962949    1.9055075    1.1607056   -4.5081616     6.413669    3.0662131 
  700000   0.80575772  -0.23644501    1.9050596     1.171837    -4.508017    6.4130766    3.0768966 
  710000   0.80316713   -0.2656158    1.9093707    1.1680694    -4.504816    6.4141867    3.0774401 
  720000    0.8014505  -0.27010162    1.9050675    1.1655728   -4.5087198    6.4137873    3.0706403 
  730000   0.80898587  -0.24599929    1.9103104    1.1765317     -4.50674    6.4170504    3.0868421 
  740000   0.80421806  -0.23881936    1.9123058    1.1695978   -4.5016389    6.4139447    3.0819036 
  750000   0.79587721  -0.24710828    1.9013924    1.1574674   -4.5138962    6.4152886    3.0588598 
  760000   0.80205676  -0.27890001    1.8981278    1.1664545   -4.5152618    6.4133896    3.0645823 
  770000   0.79454926  -0.31808408     1.909301    1.1555362   -4.5085339    6.4178349    3.0648372 
  780000   0.79745725  -0.19908606    1.9092369    1.1597653   -4.5039048    6.4131418    3.0690023 
  790000   0.80170865  -0.26684487    1.9008147    1.1659483   -4.5156606    6.4164754     3.066763 
  800000   0.80479043  -0.27505384    1.9113482    1.1704302   -4.5024235    6.4137717    3.0817784 
  810000    0.7993026  -0.23138624    1.8941325    1.1624491   -4.5182996    6.4124321    3.0565816 
  820000   0.80068028  -0.20499039    1.9046041    1.1644527   -4.5103633    6.4149674    3.0690568 
  830000   0.80816685  -0.23120142    1.9107883    1.1753406   -4.5080852    6.4188735    3.0861289 
  840000   0.79713897  -0.23760066    1.9065038    1.1593025   -4.5070787    6.4135826    3.0658063 
  850000   0.79900387  -0.29844413    1.8983713    1.1620146   -4.5161092    6.4144805    3.0603859 
  860000   0.79625344  -0.25167811    1.9013679    1.1580146   -4.5143957    6.4157636    3.0593825 
  870000   0.79740926  -0.21529506    1.9003907    1.1596955   -4.5126471    6.4130378    3.0600863 
  880000   0.79796751  -0.27745397    1.9094185    1.1605074   -4.5038037    6.4132221    3.0699259 
  890000   0.80516253  -0.20827917    1.9091954    1.1709713   -4.5058802    6.4150756    3.0801668 
  900000   0.80191178  -0.25853724    1.9065029    1.1662437   -4.5091689    6.4156718    3.0727466 
  910000   0.79747724  -0.28683902    1.9031221    1.1597944   -4.5106034    6.4137255    3.0629165 
  920000   0.80053675    -0.247322    1.9041493    1.1642439   -4.5129979    6.4171472    3.0683932 
  930000   0.80702432  -0.25145249    1.9085546     1.173679   -4.5063766    6.4149312    3.0822336 
  940000   0.79302379  -0.20733186    1.9150427    1.1533176   -4.4987354    6.4137781    3.0683603 
  950000   0.79970053  -0.21627376    1.9079659    1.1630278   -4.5098447    6.4178107    3.0709937 
  960000   0.80168408  -0.31334406      1.89669    1.1659125   -4.5219063    6.4185963    3.0626026 
  970000   0.79655205  -0.32035693     1.904114    1.1584489   -4.5120745    6.4161885    3.0625629 
  980000   0.80701103  -0.29170157    1.8981778    1.1736597   -4.5160784    6.4142562    3.0718375 
  990000   0.79968436  -0.31616288    1.8971832    1.1630043    -4.516472    6.4136552    3.0601875 
 1000000    0.8042835  -0.27024165    1.9043195    1.1696929   -4.5106405      6.41496    3.0740125 
 1010000    0.7974462   -0.2536043    1.9064802    1.1597493   -4.5103875    6.4168677    3.0662295 
 1020000   0.79705723  -0.30590712    1.9011672    1.1591836   -4.5130928      6.41426    3.0603508 
 1030000   0.80298148  -0.25656549    1.9058395    1.1677994   -4.5090229    6.4148623    3.0736388 
 1040000   0.79733171  -0.25129822    1.9008454    1.1595827   -4.5097991    6.4106445    3.0604281 
 1050000   0.79768967  -0.26537525    1.9032278    1.1601033   -4.5095665    6.4127943    3.0633312 
 1060000    0.7977379   -0.3138681    1.9058922    1.1601735   -4.5124685    6.4183606    3.0660656 
 1070000   0.79973899   -0.2954658    1.9061811    1.1630837   -4.5101116    6.4162927    3.0692649 
 1080000   0.79833716  -0.27152226    1.9055389     1.161045    -4.507201    6.4127398    3.0665839 
 1090000   0.79542532  -0.29444702    1.9039116    1.1568102   -4.5144542    6.4183658    3.0607219 
 1100000   0.79703083  -0.28471191    1.8998616    1.1591452   -4.5155112    6.4153727    3.0590067 
 1110000   0.79771512  -0.24125818     1.906418    1.1601404    -4.511547     6.417965    3.0665584 
 1120000   0.79994205  -0.22379137    1.9061728     1.163379   -4.5067521    6.4129249    3.0695519 
 1130000   0.79706892  -0.24203107     1.912308    1.1592006   -4.5018672    6.4141753    3.0715086 
 1140000   0.80101279  -0.23987834    1.8968808    1.1649363   -4.5174366    6.4143174     3.061817 
 1150000   0.80006272  -0.30082852     1.909005    1.1635545   -4.5095234    6.4185283    3.0725595 
 1160000   0.79595852  -0.26446205    1.8994613    1.1575857   -4.5129493    6.4124107     3.057047 
 1170000   0.79461155  -0.29374521    1.9005959    1.1556267   -4.5107775    6.4113734    3.0562226 
 1180000   0.80439024  -0.20807585    1.9086573    1.1698482   -4.5091593    6.4178167    3.0785055 
 1190000   0.80062153  -0.27098641    1.8984783    1.1643672   -4.5132676    6.4117459    3.0628455 
 1200000   0.79106229   -0.2107782    1.9145313     1.150465    -4.501833    6.4163643    3.0649963 
 1210000   0.80377146  -0.24072357    1.8955966    1.1689483   -4.5194226    6.4150192    3.0645449 
 1220000   0.80571649  -0.23170005    1.9053914     1.171777   -4.5080732    6.4134646    3.0771684 
 1230000   0.79812442  -0.24645141    1.8971207    1.1607356    -4.519307    6.4164276    3.0578563 
 1240000   0.80733084  -0.32192145    1.9010338    1.1741248   -4.5134922     6.414526    3.0751586 
 1250000   0.80038631  -0.27547536    1.8986385    1.1640252   -4.5157852    6.4144237    3.0626636 
 1260000   0.80064925  -0.24669285    1.9105334    1.1644075   -4.5056936     6.416227    3.0749409 
 1270000    0.7962206  -0.27826338     1.901728    1.1579668   -4.5126406    6.4143686    3.0596948 
 1280000   0.79628997  -0.19426687    1.9079042    1.1580677   -4.5073113    6.4152155    3.0659719 
 1290000   0.79173473  -0.29576139    1.9005296    1.1514429   -4.5148793    6.4154089    3.0519725 
 1300000   0.78980719  -0.32564639    1.8999522    1.1486396   -4.5140653    6.4140174    3.0485918 
 1310000   0.79925673  -0.30337457    1.8971844    1.1623824   -4.5161439    6.4133283    3.0595668 
 1320000   0.79827816  -0.20508971    1.9084283    1.1609592    -4.506758    6.4151863    3.0693875 
 1330000   0.80107677  -0.25075065    1.9109487    1.1650293   -4.5080762    6.4190249     3.075978 
 1340000    0.8046504  -0.28447219    1.9075223    1.1702265     -4.50575    6.4132723    3.0777489 
 1350000   0.79478694  -0.26966371    1.9049585    1.1558818   -4.5119749    6.4169334    3.0608403 
 1360000   0.80049791  -0.27187254    1.8989137    1.1641875   -4.5130933     6.412007    3.0631011 
 1370000   0.79681436  -0.25454241    1.9008769    1.1588304   -4.5102893    6.4111662    3.0597073 
 1380000   0.79855586   -0.3040599    1.9017697    1.1613631   -4.5127745    6.4145442    3.0631328 
 1390000    0.7993494   -0.2888226    1.8937236    1.1625171   -4.5204128    6.4141364    3.0562407 
 1400000    0.8035359   -0.2790083    1.8992756    1.1686057    -4.519303    6.4185787    3.0678813 
 1410000   0.79455023  -0.22939575    1.8974288    1.1555376   -4.5183482    6.4157771    3.0529664 
 1420000   0.80058778  -0.21416496    1.9066515    1.1643182   -4.5075228    6.4141743    3.0709697 
 1430000   0.79782516  -0.27422311    1.8961889    1.1603004   -4.5185415    6.4147304    3.0564893 
 1440000   0.79906055  -0.25419035    1.9099167    1.1620971     -4.50236    6.4122766    3.0720137 
 1450000   0.79982145  -0.30651095    1.9004424    1.1632037   -4.5130151    6.4134575    3.0636461 
 1460000   0.80130208  -0.26253889    1.9024843     1.165357   -4.5104687     6.412953    3.0678413 
 1470000   0.79609511  -0.22061848    1.9046319    1.1577843   -4.5069968    6.4116288    3.0624163 
 1480000   0.80011504  -0.20189194     1.909309    1.1636306   -4.5042214    6.4135304    3.0729396 
 1490000   0.79639004  -0.25290445     1.903358    1.1582133    -4.511808     6.415166    3.0615713 
 1500000   0.79395697  -0.23980619    1.9109861    1.1546748    -4.502509    6.4134951    3.0656608 
 1510000   0.80661336  -0.29005938    1.9015013    1.1730813    -4.515491    6.4169923    3.0745826 
 1520000   0.80395162  -0.18641557    1.9060484    1.1692103   -4.5070862    6.4131346    3.0752587 
 1530000   0.80380014  -0.21577069    1.9031582      1.16899   -4.5111905    6.4143486    3.0721481 
 1540000   0.80631698  -0.19839368    1.9097692    1.1726503   -4.5080261    6.4177954    3.0824195 
 1550000   0.79685059  -0.26760155    1.9070947    1.1588831   -4.5080955    6.4151902    3.0659777 
 1560000   0.79755696  -0.25357854    1.9079876    1.1599103     -4.50595    6.4139376     3.067898 
 1570000   0.80734049  -0.24344719    1.9103041    1.1741388    -4.506742    6.4170461    3.0844429 
 1580000   0.80692171  -0.28751607    1.9049559    1.1735298   -4.5124284    6.4173843    3.0784857 
 1590000   0.80302219  -0.24905678     1.902808    1.1678586   -4.5116359    6.4144439    3.0706666 
 1600000   0.80334122  -0.19580288    1.9181487    1.1683226   -4.5034024    6.4215511    3.0864713 
 1610000   0.79350324  -0.22838427    1.9038215    1.1540149   -4.5115398    6.4153613    3.0578364 
 1620000   0.79620066  -0.20266688     1.898125    1.1579378   -4.5146065    6.4127316    3.0560629 
 1630000   0.79507858   -0.2810196    1.8902371     1.156306    -4.526168    6.4164052    3.0465431 
 1640000   0.79631377  -0.30110423    1.9047254    1.1581023   -4.5099763    6.4147017    3.0628277 
 1650000    0.8076266  -0.27716907    1.9116908    1.1745549   -4.5026211    6.4143119    3.0862457 
 1660000   0.80618327  -0.16256244    1.9083861    1.1724558   -4.5073433    6.4157293    3.0808419 
 1670000   0.79991041  -0.31606912    1.8986415     1.163333   -4.5142019    6.4128433    3.0619745 
 1680000   0.80031439  -0.32205766    1.9043331    1.1639206   -4.5102751    6.4146082    3.0682537 
 1690000   0.80007885   -0.2493245    1.9071738     1.163578   -4.5088788    6.4160526    3.0707518 
 1700000   0.79935989  -0.32191778     1.900576    1.1625324   -4.5133116    6.4138876    3.0631084 
 1710000   0.79977201  -0.31174779    1.9040396    1.1631318    -4.511587    6.4156265    3.0671713 
 1720000   0.79258286  -0.25602546    1.9044462    1.1526764   -4.5095662    6.4140124    3.0571226 
 1730000   0.79897601  -0.25140905    1.9038359    1.1619741   -4.5104087    6.4142446      3.06581 
 1740000   0.80161161  -0.28483452    1.9106943    1.1658071   -4.5075667     6.418261    3.0765014 
 1750000   0.80844697  -0.31339037    1.9024033     1.175748   -4.5143836    6.4167869    3.0781513 
 1760000   0.79001523  -0.28436841    1.8997513    1.1489422   -4.5163978    6.4161491    3.0486934 
 1770000   0.80307582  -0.27522453    1.9059746    1.1679366   -4.5088288    6.4148034    3.0739112 
 1780000   0.79592008  -0.26685111    1.9024794    1.1575298   -4.5084367    6.4109161    3.0600092 
 1790000   0.79979416  -0.28490919    1.9071568     1.163164    -4.508791    6.4159478    3.0703207 
 1800000   0.80059308  -0.27493595    1.9003588    1.1643259   -4.5161112      6.41647    3.0646847 
 1810000     0.801179  -0.24522653    1.9079006     1.165178   -4.5083004     6.416201    3.0730785 
 1820000   0.79424677   -0.3143763    1.9044196    1.1550962   -4.5117056    6.4161252    3.0595158 
 1830000   0.79980485  -0.17881471    1.9104806    1.1631795   -4.5061423    6.4166229    3.0736601 
 1840000   0.80078915  -0.29840456    1.9093775     1.164611   -4.5079015     6.417279    3.0739885 
 1850000   0.79152016  -0.21718634    1.9040702    1.1511308   -4.5113842    6.4154544    3.0552011 
 1860000   0.80274645   -0.2911755    1.9084707    1.1674576   -4.5079712     6.416442    3.0759283 
 1870000    0.8016338  -0.26412386    1.9024216    1.1658394   -4.5124215    6.4148432     3.068261 
 1880000   0.80125128  -0.23120633    1.9027352    1.1652831   -4.5118815    6.4146167    3.0680183 
 1890000   0.79434083   -0.2893305    1.9069944     1.155233   -4.5072325    6.4142268    3.0622274 
 1900000   0.80370219  -0.28715946    1.9015265    1.1688475    -4.512254    6.4137805     3.070374 
 1910000   0.80159381  -0.21578422    1.9112935    1.1657813    -4.502877    6.4141704    3.0770747 
 1920000   0.79111334  -0.27139302    1.9186009    1.1505392   -4.4985227    6.4171236    3.0691401 
 1930000   0.80484042   -0.2047718    1.9118915    1.1705029   -4.5028589    6.4147504    3.0823943 
 1940000   0.79954824  -0.22276949    1.9061267    1.1628063   -4.5096708    6.4157975     3.068933 
 1950000   0.79509133  -0.32044316    1.8966705    1.1563245   -4.5184808    6.4151514     3.052995 
 1960000   0.79830924   -0.2356817    1.9173896    1.1610044   -4.5019336    6.4193232     3.078394 
 1970000   0.80164708  -0.28539613    1.9068166    1.1658587    -4.508776    6.4155926    3.0726753 
 1980000   0.79469363  -0.25547891    1.9092469    1.1557461   -4.5052317    6.4144785     3.064993 
 1990000   0.80385959  -0.28817386    1.9023835    1.1690764   -4.5143451    6.4167285    3.0714599 
 2000000   0.80034746  -0.27857007    1.9045783    1.1639686   -4.5077434    6.4123217    3.0685469 
 2010000   0.80412307  -0.25885618    1.8983855    1.1694596   -4.5150869    6.4134724    3.0678451 
 2020000   0.79871256  -0.25255162    1.9067119     1.161591   -4.5086286    6.4153406    3.0683029 
 2030000   0.80014188  -0.33442213    1.8899442    1.1636697   -4.5260321    6.4159763    3.0536139 
 2040000   0.80322358  -0.25479022     1.900519    1.1681515   -4.5147641    6.4152831    3.0686704 
 2050000   0.80850533  -0.24201973    1.9143549    1.1758329   -4.5022185    6.4165733    3.0901878 
 2060000   0.80395546  -0.26282308    1.9042116    1.1692159   -4.5092744    6.4134859    3.0734274 
 2070000    0.8002328  -0.25878903    1.9033421    1.1638019   -4.5110694    6.4144115     3.067144 
 2080000   0.79571328  -0.26841844     1.910473     1.157229   -4.5068458    6.4173188     3.067702 
 2090000   0.79934655  -0.25921783    1.9016445     1.162513   -4.5123386    6.4139831    3.0641575 
 2100000   0.80353225  -0.25906785     1.900462    1.1686004   -4.5126079    6.4130699    3.0690624 
 2110000    0.7968066  -0.30765608    1.8969904    1.1588191   -4.5171424    6.4141328    3.0558095 
 2120000   0.80026203  -0.18588662    1.9070071    1.1638444   -4.5084249     6.415432    3.0708515 
 2130000   0.79243199  -0.23594033    1.9068338    1.1524569   -4.5081108    6.4149446    3.0592907 
 2140000   0.80664496  -0.21442204    1.9074764    1.1731273   -4.5092122    6.4166886    3.0806037 
 2150000   0.79524847  -0.32668768    1.8970147     1.156553   -4.5143591    6.4113738    3.0535677 
 2160000   0.80095753  -0.26406054    1.9088929    1.1648559   -4.5060196    6.4149125    3.0737488 
 2170000   0.80422331  -0.25110593    1.9018091    1.1696054   -4.5142809    6.4160899    3.0714145 
 2180000   0.80042429  -0.28954613    1.9037216    1.1640804   -4.5105847    6.4143063    3.0678019 
 2190000   0.79750403  -0.25591531    1.8903304    1.1598334   -4.5247048    6.4150352    3.0501638 
 2200000   0.79113935  -0.33817035     1.908685     1.150577   -4.5098244    6.4185094    3.0592621 
 2210000    0.8004231  -0.24615393    1.9008581    1.1640786   -4.5113652    6.4122233    3.0649368 
 2220000   0.79753603  -0.24041358    1.9011604    1.1598799   -4.5136045    6.4147649    3.0610403 
 2230000   0.80369705  -0.33439846    1.8949545    1.1688401   -4.5181869    6.4131414    3.0637946 
 2240000   0.80657874  -0.24694682    1.9053769     1.173031   -4.5137745    6.4191513    3.0784078 
 2250000    0.8073025  -0.24299873    1.9030955    1.1740836   -4.5121296    6.4152251     3.077179 
 2260000   0.80652894  -0.19189403    1.9102804    1.1729585     -4.50511    6.4153903    3.0832389 
 2270000   0.80081682  -0.22704004    1.9105169    1.1646513   -4.5039276    6.4144445    3.0751681 
 2280000   0.80166554   -0.2784164    1.9017128    1.1658856   -4.5125087    6.4142216    3.0675984 
 2290000   0.80809851  -0.27230265    1.9012257    1.1752412    -4.513921    6.4151467    3.0764669 
 2300000   0.79987673  -0.20704015    1.9080664     1.163284     -4.50834    6.4164064    3.0713504 
 2310000   0.80772889  -0.29132975    1.8944364    1.1747037   -4.5222407    6.4166771      3.06914 
 2320000   0.80298423  -0.15978108     1.911958    1.1678034   -4.5055172    6.4174752    3.0797614 
 2330000   0.79968419  -0.32268904    1.8989228     1.163004   -4.5149036    6.4138263    3.0619268 
 2340000   0.80046011  -0.23516877    1.9033635    1.1641325   -4.5096933    6.4130567    3.0674959 
 2350000   0.79901843  -0.27546505    1.8952413    1.1620358   -4.5177605    6.4130018    3.0572771 
 2360000    0.8058273  -0.23673685    1.9125061    1.1719381   -4.5086747    6.4211808    3.0844442 
 2370000   0.79933534  -0.26266936    1.9017847    1.1624967    -4.512979    6.4147638    3.0642814 
 2380000   0.80293585  -0.23198028    1.9127181     1.167733   -4.5044772    6.4171953    3.0804511 
 2390000   0.80030146  -0.29957969    1.9014359    1.1639017   -4.5112521     6.412688    3.0653376 
 2400000     0.799053  -0.29370323    1.9035128    1.1620861   -4.5117507    6.4152636    3.0655989 
 2410000   0.79562588  -0.25421669    1.9045141    1.1571019   -4.5086563    6.4131704     3.061616 
 2420000   0.79823453  -0.21302032    1.9131858    1.1608957   -4.5054147    6.4186005    3.0740816 
 2430000   0.80213765  -0.26545534    1.9096049    1.1665722   -4.5099166    6.4195215     3.076177 
 2440000   0.81024038  -0.23971762    1.9107899    1.1783562   -4.5035642    6.4143541    3.0891461 
 2450000   0.79888526  -0.23827491    1.9079967    1.1618421   -4.5071565    6.4151533    3.0698389 
 2460000   0.80455594  -0.19834968    1.9103194    1.1700892   -4.5063113    6.4166307    3.0804086 
 2470000   0.80314697  -0.31463498          1.9    1.1680401   -4.5143638    6.4143638    3.0680401 
 2480000   0.79295855  -0.29764957    1.9048648    1.1532227   -4.5108485    6.4157134    3.0580876 
 2490000   0.80042494  -0.29428026    1.8924103    1.1640813    -4.525512    6.4179223    3.0564916 
 2500000   0.79981419  -0.29156023    1.9015956    1.1631931   -4.5132849    6.4148804    3.0647887 
 2510000   0.80047834  -0.30841806    1.9017337     1.164159   -4.5143969    6.4161306    3.0658927 
 2520000   0.79427137  -0.26499273    1.9039244     1.155132   -4.5114538    6.4153782    3.0590564 
 2530000   0.80341483  -0.27263605    1.8995469    1.1684296   -4.5159958    6.4155427    3.0679765 
 2540000    0.8033524  -0.26388273    1.8982484    1.1683388   -4.5115296    6.4097781    3.0665873 
 2550000   0.79945739  -0.24243769    1.9067234    1.1626742   -4.5092987    6.4160221    3.0693976 
 2560000   0.80398638  -0.27153303    1.9062044    1.1692608   -4.5076077    6.4138121    3.0754652 
 2570000   0.79995665  -0.26642946    1.9028388    1.1634003   -4.5136714    6.4165101    3.0662391 
 2580000   0.79886811  -0.21646784    1.9015416    1.1618172   -4.5100016    6.4115432    3.0633588 
 2590000   0.79422126  -0.24992084    1.9032029    1.1550591   -4.5126335    6.4158364     3.058262 
 2600000   0.79494386  -0.26850487    1.9018396      1.15611   -4.5137152    6.4155548    3.0579496 
 2610000   0.79579359  -0.26860817    1.9078523    1.1573458   -4.5086096    6.4164619    3.0651981 
 2620000   0.79878955  -0.33034475    1.8922575    1.1617029   -4.5234718    6.4157293    3.0539604 
 2630000   0.79264891  -0.29155452    1.9004025    1.1527724   -4.5121774    6.4125798    3.0531749 
 2640000   0.80517159  -0.23017322    1.8995982    1.1709845   -4.5126207    6.4122189    3.0705827 
 2650000   0.79609225  -0.23426339    1.9074099    1.1577802   -4.5072809    6.4146907      3.06519 
 2660000   0.80640199  -0.30765489    1.8996542    1.1727739   -4.5141925    6.4138466    3.0724281 
 2670000   0.80364324  -0.30826657    1.9020174    1.1687618   -4.5114987    6.4135161    3.0707792 
 2680000   0.79976817  -0.31143032    1.8983982    1.1631262   -4.5171175    6.4155157    3.0615244 
 2690000     0.798103  -0.21760393     1.903321    1.1607045   -4.5168687    6.4201897    3.0640254 
 2700000   0.80262157  -0.30097369    1.8999775     1.167276   -4.5156983    6.4156758    3.0672535 
 2710000   0.80231017  -0.26542675    1.9017447    1.1668231   -4.5142249    6.4159696    3.0685677 
 2720000   0.80344782  -0.25584421    1.9049964    1.1684776   -4.5086587    6.4136551     3.073474 
 2730000   0.80108193  -0.27143251    1.9102262    1.1650368   -4.5069508     6.417177     3.075263 
 2740000      0.80118  -0.29668873    1.9011346    1.1651794   -4.5115672    6.4127018     3.066314 
 2750000   0.79970265  -0.21135236    1.9128816    1.1630309    -4.503598    6.4164796    3.0759125 
 2760000   0.80288982  -0.27478143    1.9024623    1.1676661   -4.5129214    6.4153837    3.0701283 
 2770000   0.79701017  -0.26076752     1.903953    1.1591151   -4.5104754    6.4144285    3.0630682 
 2780000   0.80092455  -0.26946323    1.8980402    1.1648079   -4.5141725    6.4122126    3.0628481 
 2790000   0.80029039  -0.28738616    1.9061113    1.1638856   -4.5097407    6.4158519    3.0699969 
 2800000   0.79709622  -0.26411342    1.9064823    1.1592403   -4.5074138    6.4138961    3.0657226 
 2810000   0.80034181   -0.2318344     1.901906    1.1639604   -4.5132028    6.4151088    3.0658664 
 2820000   0.79875766  -0.28519553    1.8958672    1.1616566    -4.517168    6.4130353    3.0575238 
 2830000   0.80595543  -0.31365724    1.9019626    1.1721245   -4.5157786    6.4177412    3.0740871 
 2840000    0.7985563  -0.25591347    1.9054663    1.1613637   -4.5052327     6.410699      3.06683 
 2850000   0.79851417  -0.30171954    1.9000121    1.1613024    -4.513519    6.4135311    3.0613145 
 2860000   0.79528234   -0.2764856    1.9017398    1.1566023   -4.5139807    6.4157205    3.0583421 
 2870000   0.79657515  -0.26874887     1.903684    1.1584825    -4.513462     6.417146    3.0621665 
 2880000   0.80051201  -0.29633773    1.9092573     1.164208   -4.5033071    6.4125644    3.0734653 
 2890000   0.80120204  -0.27639095    1.9097838    1.1652115   -4.5037835    6.4135673    3.0749953 
 2900000   0.79655851  -0.26200524    1.9048761    1.1584583   -4.5120922    6.4169682    3.0633343 
 2910000   0.80105493  -0.27012826    1.9029266    1.1649975   -4.5114009    6.4143275    3.0679242 
 2920000   0.80418644  -0.27811702    1.9051962    1.1695518   -4.5084272    6.4136234     3.074748 
 2930000   0.79815713  -0.29214623     1.901756    1.1607832   -4.5112894    6.4130453    3.0625391 
 2940000   0.79650229  -0.18259233     1.911605    1.1583765   -4.5028032    6.4144082    3.0699815 
 2950000   0.79809136  -0.33533738    1.9062322    1.1606875   -4.5118969    6.4181291    3.0669197 
 2960000   0.80655344  -0.24528575    1.8982158    1.1729942     -4.51491    6.4131258      3.07121 
 2970000   0.80740121  -0.25920433    1.9066447    1.1742271   -4.5054084    6.4120531    3.0808719 
 2980000   0.80059031  -0.25181108    1.9091368    1.1643218   -4.5080976    6.4172343    3.0734586 
 2990000   0.80348279  -0.17544427    1.9058401    1.1685285   -4.5085957    6.4144357    3.0743685 
 3000000   0.79718549  -0.23139183    1.9083563    1.1593701   -4.5090081    6.4173643    3.0677264 
 3010000   0.79539658  -0.30380253    1.9041682    1.1567684   -4.5121921    6.4163603    3.0609366 
 3020000    0.8029087  -0.20951611    1.9093912    1.1676935   -4.5056296    6.4150208    3.0770847 
 3030000   0.80453155  -0.23792291    1.9045478    1.1700537   -4.5085013    6.4130492    3.0746015 
 3040000   0.79632824  -0.29694139    1.9030592    1.1581234   -4.5108874    6.4139466    3.0611826 
 3050000   0.79371895   -0.3276954    1.8998526    1.1543286   -4.5144317    6.4142843    3.0541812 
 3060000   0.80038514  -0.22292036    1.9039583    1.1640235   -4.5088179    6.4127762    3.0679817 
 3070000   0.79771258  -0.29899553    1.8979458    1.1601367   -4.5190015    6.4169472    3.0580824 
 3080000   0.80342986   -0.2858551    1.9111891    1.1684515   -4.5067531    6.4179423    3.0796406 
 3090000   0.79635978  -0.28973054    1.8981621    1.1581692    -4.512176    6.4103381    3.0563314 
 3100000   0.79820514   -0.2274979    1.9056547     1.160853   -4.5110783     6.416733    3.0665078 
 3110000   0.79724796  -0.19101471    1.9020806    1.1594609   -4.5100684     6.412149    3.0615416 
 3120000   0.79764078   -0.2282848    1.9075237    1.1600322   -4.5084718    6.4159955    3.0675559 
 3130000   0.79969095   -0.1923287    1.9063424    1.1630139   -4.5114926     6.417835    3.0693563 
 3140000   0.80593358  -0.34191109    1.8981785    1.1720927   -4.5158478    6.4140263    3.0702712 
 3150000   0.79814926  -0.25970657    1.9053837    1.1607717   -4.5105994    6.4159831    3.0661554 
 3160000   0.80413663  -0.28686049    1.9046935    1.1694793   -4.5111031    6.4157966    3.0741728 
 3170000    0.7984817  -0.27921317    1.8959208    1.1612552   -4.5185178    6.4144386     3.057176 
 3180000   0.79953336  -0.22345531    1.9111525    1.1627847   -4.5034383    6.4145908    3.0739372 
 3190000   0.80315948  -0.20178531    1.9115311    1.1680583    -4.504649    6.4161801    3.0795893 
 3200000   0.79678472  -0.27552689    1.9025534    1.1587873   -4.5139624    6.4165157    3.0613406 
 3210000   0.80080028   -0.2851756    1.9008084    1.1646272   -4.5124563    6.4132648    3.0654356 
 3220000   0.80026562  -0.26046704    1.9087767    1.1638496   -4.5046576    6.4134343    3.0726263 
 3230000   0.79666186  -0.23853356    1.9068526    1.1586086   -4.5080637    6.4149163    3.0654612 
 3240000   0.80612648  -0.25167055    1.8976412    1.1723732   -4.5158665    6.4135077    3.0700144 
 3250000   0.79632099  -0.27954808    1.8998935    1.1581128   -4.5129344    6.4128279    3.0580063 
 3260000     0.801569   -0.1411746    1.9082143    1.1657452   -4.5053906     6.413605    3.0739595 
 3270000   0.80293941  -0.27513382    1.8972703    1.1677382   -4.5186914    6.4159617    3.0650085 
 3280000    0.8012773  -0.26032405    1.9054263    1.1653209   -4.5071474    6.4125736    3.0707472 
 3290000   0.79894531  -0.26720061    1.9069114    1.1619295   -4.5079788    6.4148902    3.0688409 
 3300000   0.80044238  -0.25981271    1.9049348    1.1641067   -4.5092318    6.4141666    3.0690415 
 3310000   0.80221534  -0.24760371    1.9092482    1.1666852   -4.5076895    6.4169377    3.0759334 
 3320000   0.79808122  -0.27192255    1.9112943    1.1606728   -4.5059289    6.4172231    3.0719671 
 3330000   0.80270184  -0.26620711    1.8929796    1.1673927   -4.5223191    6.4152987    3.0603723 
 3340000   0.79236551  -0.21099244    1.9091309    1.1523603   -4.5076741    6.4168049    3.0614911 
 3350000   0.79706623  -0.29838142    1.9066141    1.1591967   -4.5080266    6.4146408    3.0658108 
 3360000     0.801704  -0.26901728     1.900996    1.1659415    -4.511476     6.412472    3.0669375 
 3370000   0.80480593  -0.17677797    1.9102051    1.1704527   -4.5042679     6.414473    3.0806578 
 3380000   0.80227901  -0.28441708    1.9072098    1.1667778   -4.5084658    6.4156756    3.0739875 
 3390000   0.79877636  -0.23790554    1.9070004    1.1616838   -4.5095355    6.4165359    3.0686841 
 3400000   0.79725823  -0.30034285     1.900198    1.1594759   -4.5134435    6.4136414    3.0596739 
 3410000    0.8001006   -0.2382345    1.9083965    1.1636096   -4.5083462    6.4167427    3.0720061 
 3420000   0.79211787   -0.3029071    1.8956613    1.1520001   -4.5169923    6.4126535    3.0476614 
 3430000   0.78756296  -0.23628388    1.9049624    1.1453758   -4.5092055    6.4141679    3.0503382 
 3440000   0.79958085  -0.27898899    1.9039588    1.1628537   -4.5114587    6.4154175    3.0668125 
 3450000   0.80144566  -0.25409069    1.9014971    1.1655658   -4.5154129      6.41691    3.0670628 
 3460000   0.80435909  -0.23401886    1.9010579    1.1698029   -4.5120039    6.4130618    3.0708608 
 3470000   0.80745618  -0.25598558    1.9006838    1.1743071   -4.5115523    6.4122361    3.0749908 
 3480000   0.79764276  -0.29422908     1.900117    1.1600351   -4.5140053    6.4141223    3.0601521 
 3490000   0.79666955  -0.24487174    1.9016111    1.1586198   -4.5147105    6.4163215    3.0602309 
 3500000   0.79899967  -0.24726909    1.8952748    1.1620085   -4.5190128    6.4142876    3.0572833 
 3510000   0.79626368  -0.27054598    1.9072773    1.1580295   -4.5118136    6.4190909    3.0653068 
 3520000   0.79767863  -0.29473737    1.8956102    1.1600873   -4.5201567     6.415767    3.0556975 
 3530000   0.80177947   -0.2877076    1.8949646    1.1660513    -4.515145    6.4101097    3.0610159 
 3540000   0.79423454  -0.25128321    1.9034556    1.1550784   -4.5119304    6.4153859     3.058534 
 3550000   0.79419197  -0.23803542    1.8949464    1.1550165   -4.5173212    6.4122676    3.0499629 
 3560000   0.79548636  -0.26647975    1.9057488     1.156899   -4.5088649    6.4146137    3.0626479 
 3570000   0.79178451  -0.24537033     1.906391    1.1515153   -4.5058382    6.4122292    3.0579063 
 3580000   0.79992417  -0.27062726     1.907908     1.163353   -4.5089972    6.4169052    3.0712611 
 3590000   0.80315316  -0.20989192    1.9091947    1.1680491    -4.509201    6.4183958    3.0772438 
 3600000    0.7956971  -0.30868119    1.9031968    1.1572055   -4.5128891    6.4160859    3.0604023 
 3610000   0.79361703  -0.20371154    1.9138507    1.1541804   -4.4989422    6.4127928    3.0680311 
 3620000   0.80610641  -0.25263793    1.9064853    1.1723441   -4.5095974    6.4160827    3.0788293 
 3630000   0.80344421  -0.22287151    1.9123359    1.1684723   -4.5030083    6.4153442    3.0808083 
 3640000   0.79971056  -0.26399921    1.9008907    1.1630424   -4.5152748    6.4161655     3.063933 
 3650000   0.79572299  -0.31267665    1.8986073    1.1572432   -4.5170255    6.4156327    3.0558504 
 3660000   0.80262983  -0.31838543    1.8960605     1.167288   -4.5151929    6.4112534    3.0633484 
 3670000   0.80201624   -0.2823077    1.9041792    1.1663956   -4.5070333    6.4112125    3.0705748 
 3680000   0.80556987  -0.21262065    1.9108296    1.1715638   -4.5027794     6.413609    3.0823934 
 3690000   0.79638936  -0.26015092    1.9090036    1.1582123   -4.5075313    6.4165349    3.0672159 
 3700000   0.79932859  -0.26899636    1.9055027    1.1624869   -4.5128146    6.4183173    3.0679896 
 3710000   0.79308435  -0.30656203    1.9084945    1.1534057   -4.5066474    6.4151419    3.0619002 
 3720000   0.80024526  -0.23894072    1.8968267      1.16382   -4.5161471    6.4129738    3.0606467 
 3730000   0.80370712  -0.19770982    1.9035276    1.1688547   -4.5105787    6.4141063    3.0723823 
 3740000   0.80001912  -0.27801364    1.9070415    1.1634911   -4.5096663    6.4167078    3.0705326 
 3750000   0.80285276  -0.22151794    1.9009706    1.1676122   -4.5121264     6.413097    3.0685828 
 3760000   0.80653222  -0.22516632    1.9004326    1.1729633   -4.5123565    6.4127892     3.073396 
 3770000   0.80156227  -0.25434516    1.9003353    1.1657354   -4.5149284    6.4152637    3.0660707 
 3780000   0.80618698   -0.2447383    1.9028076    1.1724612    -4.511832    6.4146396    3.0752689 
 3790000   0.79723624  -0.27195896    1.9053472    1.1594439   -4.5117195    6.4170667    3.0647911 
 3800000   0.80276742  -0.26006572    1.8928869    1.1674881   -4.5177067    6.4105936     3.060375 
 3810000   0.79736595  -0.29660004    1.9009538    1.1596326   -4.5124817    6.4134355    3.0605864 
 3820000   0.80093993  -0.23147999    1.9053863    1.1648303   -4.5089099    6.4142962    3.0702166 
 3830000   0.80508841  -0.32208735    1.9022184    1.1708636   -4.5159292    6.4181476     3.073082 
 3840000   0.79613155  -0.24592455     1.901914    1.1578373   -4.5129476    6.4148616    3.0597513 
 3850000   0.79789605  -0.27451318     1.906615    1.1604035   -4.5090608    6.4156757    3.0670185 
 3860000   0.79610127  -0.24176552    1.9067198    1.1577933   -4.5091236    6.4158434    3.0645131 
 3870000   0.79847807  -0.24882598    1.9003837    1.1612499   -4.5129471    6.4133308    3.0616337 
 3880000   0.79841012  -0.31062526    1.8926127    1.1611511    -4.521554    6.4141667    3.0537638 
 3890000   0.80669783  -0.29139868    1.9113984    1.1732042   -4.5035527    6.4149511    3.0846026 
 3900000   0.79977061  -0.27167475    1.9038713    1.1631297   -4.5078332    6.4117045    3.0670011 
 3910000   0.79496389   -0.3174519    1.9001292    1.1561392   -4.5129354    6.4130646    3.0562684 
 3920000   0.79453842  -0.25164382    1.9064353    1.1555204   -4.5078545    6.4142897    3.0619557 
 3930000   0.80291853  -0.26732377     1.895931    1.1677078   -4.5207665    6.4166974    3.0636388 
 3940000    0.8012245  -0.25816249    1.9089499    1.1652442   -4.5049153    6.4138652     3.074194 
 3950000   0.80501449  -0.27829282    1.9010813     1.170756    -4.514264    6.4153453    3.0718374 
 3960000   0.79951707  -0.23423575    1.9114958     1.162761    -4.505101    6.4165968    3.0742568 
 3970000   0.79638577  -0.31254355    1.8999288     1.158207   -4.5143786    6.4143074    3.0581359 
 3980000   0.79036932  -0.28228754    1.9017352    1.1494572   -4.5135659    6.4153011    3.0511923 
 3990000   0.80122643  -0.19546743    1.9103559     1.165247   -4.5061593    6.4165152    3.0756029 
 4000000   0.80260057  -0.29513083    1.8990177    1.1672454   -4.5161081    6.4151259    3.0662631 
 4010000   0.79573366   -0.2511228    1.9066422    1.1572587   -4.5091583    6.4158004    3.0639008 
 4020000   0.79967679  -0.24884566    1.9007945    1.1629933   -4.5157586     6.416553    3.0637877 
 4030000   0.80178063  -0.19703635    1.9028422    1.1660529    -4.507887    6.4107292    3.0688952 
 4040000   0.80805708  -0.24006323    1.9121409     1.175181   -4.5054947    6.4176356    3.0873219 
 4050000   0.78933772  -0.24271678    1.9023984    1.1479569   -4.5108159    6.4132142    3.0503552 
 4060000   0.80402562  -0.22339805    1.9054492    1.1693179   -4.5115665    6.4170157    3.0747671 
 4070000   0.79990856   -0.2531238    1.9066044    1.1633303   -4.5086141    6.4152185    3.0699347 
 4080000   0.80210293  -0.23579619    1.9053373    1.1665217   -4.5091899    6.4145272    3.0718589 
 4090000   0.80320327   -0.2726071    1.9034942    1.1681219   -4.5121506    6.4156449    3.0716162 
 4100000   0.79302819  -0.25695251    1.9043916     1.153324   -4.5141966    6.4185882    3.0577156 
 4110000   0.80393805  -0.19131094    1.9117823    1.1691905    -4.505762    6.4175442    3.0809728 
 4120000   0.80284583  -0.22648024    1.9075399    1.1676021   -4.5060493    6.4135891     3.075142 
 4130000   0.80272608  -0.20148365    1.9060936    1.1674279   -4.5102889    6.4163825    3.0735215 
 4140000   0.79495153   -0.2499702    1.9000361    1.1561212   -4.5125787    6.4126148    3.0561573 
 4150000   0.79649023  -0.37380206    1.8931638     1.158359   -4.5215191     6.414683    3.0515228 
 4160000   0.80195725  -0.27829886    1.8988645    1.1663098    -4.517051    6.4159154    3.0651743 
 4170000   0.79430137  -0.18981456    1.9052589    1.1551756   -4.5101236    6.4153824    3.0604345 
 4180000   0.80289986  -0.23529244    1.9139566    1.1676807   -4.5022955    6.4162521    3.0816373 
 4190000   0.79900204  -0.30327628    1.8961535     1.162012   -4.5208739    6.4170274    3.0581654 
 4200000   0.79661164  -0.27554236    1.9017096    1.1585355   -4.5128909    6.4146005    3.0602451 
 4210000   0.80668861  -0.22027401    1.9016778    1.1731908   -4.5108005    6.4124783    3.0748686 
 4220000   0.79217596  -0.33607334    1.9068926    1.1520846    -4.509044    6.4159366    3.0589772 
 4230000   0.80973966   -0.2478051    1.9098324     1.177628   -4.5025762    6.4124086    3.0874604 
 4240000   0.79857758  -0.19960408    1.9040544    1.1613947   -4.5105774    6.4146318    3.0654491 
 4250000    0.8015072  -0.17723825    1.9114226    1.1656553   -4.5070688    6.4184914    3.0770779 
 4260000   0.80236967  -0.26490307    1.8990215    1.1669096    -4.515761    6.4147826    3.0659312 
 4270000   0.79760527  -0.30475534    1.9079006    1.1599806   -4.5055354     6.413436    3.0678812 
 4280000   0.80187133  -0.30553444    1.9006032    1.1661849   -4.5114632    6.4120663     3.066788 
 4290000   0.79433409  -0.25721444    1.9081899    1.1552232   -4.5050894    6.4132792    3.0634131 
 4300000   0.79556378  -0.25564652    1.9077967    1.1570116   -4.5069456    6.4147422    3.0648083 
 4310000   0.79802313   -0.3224177    1.8925347    1.1605883   -4.5235073     6.416042     3.053123 
 4320000   0.79664368  -0.17776877    1.9078976    1.1585821   -4.5065845    6.4144821    3.0664798 
 4330000   0.79930189  -0.27450775    1.8999878     1.162448   -4.5130234    6.4130112    3.0624358 
 4340000   0.79785294  -0.27307101    1.9043607    1.1603408   -4.5075652    6.4119259    3.0647015 
 4350000   0.80269865  -0.22292505    1.9044786    1.1673881   -4.5073593    6.4118379    3.0718667 
 4360000   0.79869191  -0.26048441    1.9031283    1.1615609   -4.5116057    6.4147341    3.0646893 
 4370000   0.80291966  -0.30847675    1.8986187    1.1677095    -4.517725    6.4163437    3.0663282 
 4380000    0.7922195  -0.31161302    1.8960137    1.1521479   -4.5202104    6.4162242    3.0481616 
 4390000   0.80377765  -0.25424383    1.9028026    1.1689573   -4.5092915    6.4120941    3.0717599 
 4400000   0.80486628  -0.27932208    1.9008836    1.1705405   -4.5145206    6.4154042    3.0714241 
 4410000   0.80359868  -0.21324117    1.9069933     1.168697   -4.5086387    6.4156321    3.0756903 
 4420000   0.79562821  -0.28021777    1.9027554    1.1571053    -4.512086    6.4148415    3.0598607 
 4430000    0.7951858  -0.20464513    1.9065562    1.1564619   -4.5097943    6.4163505    3.0630181 
 4440000   0.79780752  -0.23918991    1.9006049    1.1602747   -4.5142246    6.4148295    3.0608796 
 4450000    0.8037226  -0.29327092    1.9010968    1.1688772   -4.5138743    6.4149711     3.069974 
 4460000     0.802168  -0.27216498    1.9059228    1.1666163     -4.50776    6.4136828    3.0725391 
 4470000   0.79993772  -0.20181795    1.9103932    1.1633728   -4.5057556    6.4161487    3.0737659 
 4480000   0.79557819  -0.24886798    1.9153596    1.1570326   -4.5023288    6.4176884    3.0723922 
 4490000   0.79553873   -0.3343118    1.8940171    1.1569752   -4.5169887    6.4110057    3.0509922 
 4500000    0.7956221   -0.2494289    1.9163366    1.1570964   -4.5026064     6.418943     3.073433 
 4510000   0.79990095  -0.23978285    1.9063962    1.1633193   -4.5098419    6.4162381    3.0697155 
 4520000   0.80374921  -0.22221467    1.9051366    1.1689159   -4.5057684     6.410905    3.0740525 
 4530000   0.80073456  -0.26489973    1.8982567    1.1645316   -4.5155879    6.4138447    3.0627883 
 4540000   0.79991913  -0.24519736      1.89799    1.1633457   -4.5137198    6.4117098    3.0613357 
 4550000   0.80627646  -0.21242375    1.9142784    1.1725914   -4.4996559    6.4139343    3.0868698 
 4560000   0.79504865  -0.29680081    1.8969447    1.1562624   -4.5166554    6.4136001    3.0532071 
 4570000   0.80204146  -0.24565793    1.9013733    1.1664323   -4.5132059    6.4145792    3.0678055 
 4580000   0.80224217  -0.20579764    1.9136648    1.1667242    -4.501922    6.4155868     3.080389 
 4590000   0.79863514  -0.28243188    1.9052557    1.1614784   -4.5087918    6.4140475    3.0667341 
 4600000   0.79508432  -0.21662349     1.908953    1.1563143   -4.5010129    6.4099659    3.0652674 
 4610000   0.79738335    -0.265452    1.9075859    1.1596579   -4.5066642    6.4142501    3.0672437 
 4620000   0.80364197  -0.20322196    1.9074588    1.1687599   -4.5087717    6.4162305    3.0762187 
 4630000   0.80521275  -0.23113429    1.9086197    1.1710444   -4.5048721    6.4134918    3.0796641 
 4640000   0.79646791  -0.24892128    1.9080608    1.1583265   -4.5069949    6.4150556    3.0663873 
 4650000   0.80221625  -0.22617072    1.8970786    1.1666865   -4.5175159    6.4145945    3.0637651 
 4660000   0.79684464  -0.21263795    1.9152857    1.1588744    -4.498243    6.4135287    3.0741601 
 4670000   0.80820759  -0.27342544    1.8937005    1.1753999   -4.5238412    6.4175417    3.0691004 
 4680000   0.79019468  -0.26035169    1.9057835    1.1492032   -4.5082573    6.4140408    3.0549867 
 4690000   0.80192854  -0.24466493     1.913097    1.1662681   -4.5010492    6.4141463    3.0793651 
 4700000   0.79743452  -0.24793003    1.9052453    1.1597323   -4.5116904    6.4169357    3.0649776 
 4710000   0.80083218  -0.27935424    1.9035161    1.1646736   -4.5098907    6.4134068    3.0681897 
 4720000   0.79829406  -0.27053398    1.9020207    1.1609823   -4.5132887    6.4153094     3.063003 
 4730000   0.80623303  -0.23251014    1.8954405    1.1725282   -4.5200238    6.4154643    3.0679688 
 4740000    0.8023181  -0.26018056    1.9053626    1.1668346   -4.5084964     6.413859    3.0721972 
 4750000   0.79799273   -0.2562836    1.9041202    1.1605441   -4.5139342    6.4180544    3.0646643 
 4760000   0.79557051  -0.28223853    1.9063496    1.1570214   -4.5119599    6.4183096     3.063371 
 4770000   0.80039062  -0.33356659    1.8948913    1.1640314    -4.520059    6.4149503    3.0589227 
 4780000   0.80144758  -0.27841085    1.9030143    1.1655686   -4.5127536    6.4157678    3.0685829 
 4790000   0.79989593  -0.25449442    1.9059479     1.163312   -4.5116067    6.4175545    3.0692598 
 4800000   0.79724735  -0.25705587    1.9063899    1.1594601   -4.5109676    6.4173575      3.06585 
 4810000   0.80403849  -0.35403694    1.8914477    1.1693366   -4.5243887    6.4158363    3.0607843 
 4820000   0.80219765  -0.31145457    1.8985478    1.1666594   -4.5169112    6.4154589    3.0652072 
 4830000   0.80363934  -0.22323779    1.9032214    1.1687561   -4.5071125    6.4103339    3.0719775 
 4840000   0.80245668  -0.21190953    1.9037286    1.1670362   -4.5123365     6.416065    3.0707647 
 4850000   0.80316374  -0.32477758    1.8998591    1.1680644   -4.5109372    6.4107962    3.0679235 
 4860000   0.80289756  -0.31405955    1.9018723    1.1676773   -4.5146995    6.4165718    3.0695496 
 4870000   0.79565012  -0.23555892     1.911705    1.1571372   -4.5026432    6.4143481    3.0688421 
 4880000   0.79347198  -0.28784923    1.9114152    1.1539694   -4.5090972    6.4205124    3.0653847 
 4890000   0.81142533  -0.29891684    1.9061824    1.1800795   -4.5101756     6.416358     3.086262 
 4900000   0.79317475  -0.18412199    1.9038116    1.1535372     -4.50622    6.4100316    3.0573488 
 4910000   0.80066246  -0.34240363     1.893862    1.1644268   -4.5202194    6.4140814    3.0582888 
 4920000   0.79798261  -0.25992853    1.9037876    1.1605294   -4.5131671    6.4169546    3.0643169 
 4930000   0.79871013  -0.30197792    1.9010433    1.1615874   -4.5139534    6.4149967    3.0626307 
 4940000   0.80787901  -0.28645657    1.8991282     1.174922   -4.5164587    6.4155869    3.0740502 
 4950000   0.79398971  -0.19451972    1.9169685    1.1547224   -4.4994193    6.4163878    3.0716909 
 4960000   0.80460767  -0.24666454    1.9034362    1.1701644   -4.5077323    6.4111685    3.0736006 
 4970000   0.79648388   -0.2108298    1.9183301    1.1583497   -4.4962514    6.4145815    3.0766799 
 4980000   0.79778936  -0.26817989    1.8986425    1.1602483   -4.5191415     6.417784    3.0588908 
 4990000   0.79548187  -0.23710353    1.9074563    1.1568925   -4.5076414    6.4150978    3.0643488 
 5000000   0.79712975  -0.27076936    1.9136888     1.159289   -4.5020918    6.4157806    3.0729778 
 5010000   0.79729898  -0.24441968    1.9027928    1.1595352   -4.5125983    6.4153911     3.062328 
 5020000   0.79720864  -0.29287216    1.9084064    1.1594038   -4.5086368    6.4170432    3.0678102 
 5030000   0.79528901  -0.21286661    1.8997777     1.156612   -4.5103471    6.4101248    3.0563897 
 5040000   0.80039729  -0.26042232    1.9049641    1.1640411   -4.5063127    6.4112768    3.0690052 
 5050000   0.79964359  -0.20493849    1.8997939     1.162945   -4.5150389    6.4148327    3.0627388 
 5060000   0.79842565  -0.27530309    1.9094141    1.1611737   -4.5024762    6.4118903    3.0705878 
 5070000   0.79796277  -0.27352925    1.9000111    1.1605005    -4.514888    6.4148991    3.0605116 
 5080000   0.79580107  -0.31543443     1.905038    1.1573567   -4.5126498    6.4176878    3.0623947 
 5090000   0.80378951  -0.30724361    1.9010585    1.1689745   -4.5123309    6.4133894     3.070033 
 5100000   0.80169474  -0.25744362    1.8964804     1.165928   -4.5199793    6.4164597    3.0624085 
 5110000   0.80081033   -0.2427258    1.9085805    1.1646418   -4.5084616    6.4170422    3.0732223 
 5120000   0.80712552  -0.22985748     1.899116    1.1738262   -4.5140434    6.4131595    3.0729422 
 5130000   0.80003884    -0.242132     1.907037    1.1635198   -4.5074486    6.4144856    3.0705568 
 5140000   0.80080422  -0.28188021    1.9114021    1.1646329     -4.50264    6.4140421    3.0760351 
 5150000   0.79697832  -0.21066456    1.9093001    1.1590688   -4.5045341    6.4138343     3.068369 
 5160000   0.80251026  -0.28202237    1.9047592    1.1671141   -4.5108263    6.4155855    3.0718732 
 5170000   0.79730542  -0.21214227    1.9108814    1.1595445   -4.5065591    6.4174405    3.0704259 
 5180000   0.80209979  -0.29841793    1.9027229    1.1665171   -4.5091458    6.4118687      3.06924 
 5190000   0.80434501  -0.20227731    1.9008095    1.1697824   -4.5153852    6.4161947    3.0705919 
 5200000   0.80011128  -0.31270289    1.9028506    1.1636252   -4.5128071    6.4156577    3.0664758 
 5210000   0.79871347  -0.30953056    1.9082953    1.1615923   -4.5109066    6.4192019    3.0698875 
 5220000   0.80251741  -0.21876517    1.9109987    1.1671245   -4.5056366    6.4166353    3.0781231 
 5230000   0.79766153  -0.24352549    1.9107129    1.1600624   -4.5033535    6.4140664    3.0707753 
 5240000   0.80089207  -0.29382189     1.903481    1.1647607   -4.5157463    6.4192274    3.0682417 
 5250000   0.80486398  -0.26662933    1.9053797    1.1705372   -4.5099988    6.4153785    3.0759169 
 5260000   0.79853277  -0.24466979    1.9064857    1.1613295   -4.5060194    6.4125052    3.0678152 
 5270000   0.79419336    -0.293799    1.9039954    1.1550186   -4.5119709    6.4159663    3.0590139 
 5280000   0.79969593  -0.25621694     1.901065    1.1630211   -4.5117829    6.4128479    3.0640861 
 5290000   0.80101938  -0.27105273     1.895686    1.1649458   -4.5174194    6.4131054    3.0606319 
 5300000   0.78857967  -0.26705381    1.9047438    1.1468544   -4.5117415    6.4164853    3.0515982 
 5310000   0.79974037  -0.17877708    1.9152345    1.1630857   -4.5019876    6.4172221    3.0783203 
 5320000   0.80050005  -0.21767079    1.9073056    1.1641906   -4.5077772    6.4150828    3.0714962 
 5330000   0.79283909  -0.31675846    1.9014571     1.153049   -4.5116798    6.4131369    3.0545062 
 5340000   0.79766036   -0.2798738    1.8977771    1.1600607   -4.5147512    6.4125283    3.0578378 
 5350000   0.80697041  -0.16216512     1.909653    1.1736006   -4.5048721    6.4145251    3.0832536 
 5360000    0.7960098  -0.29550179    1.9009453    1.1576603   -4.5153308     6.416276    3.0586055 
 5370000   0.79737159  -0.28548859    1.9047027    1.1596408   -4.5100984    6.4148011    3.0643435 
 5380000   0.80448734  -0.24553398    1.9027684    1.1699894   -4.5141888    6.4169572    3.0727578 
 5390000    0.7988674  -0.28418515    1.8960057    1.1618162   -4.5178642    6.4138699    3.0578218 
 5400000   0.79686132  -0.23315173    1.9028714    1.1588987    -4.509221    6.4120925    3.0617701 
 5410000    0.8081905  -0.32094096     1.900881     1.175375   -4.5123868    6.4132679     3.076256 
 5420000   0.80079556  -0.31071182    1.9036734    1.1646203   -4.5121194    6.4157928    3.0682938 
 5430000   0.80004438  -0.26864316     1.898277    1.1635279   -4.5126602    6.4109372    3.0618049 
 5440000   0.80318761  -0.22048737    1.8966097    1.1680992   -4.5195134    6.4161231    3.0647088 
 5450000   0.80258856  -0.24998289    1.9043793    1.1672279   -4.5081627     6.412542    3.0716073 
 5460000   0.79832233  -0.20931861    1.9105766    1.1610234   -4.5028699    6.4134465       3.0716 
 5470000    0.8095016  -0.23524927    1.9018918    1.1772818   -4.5115419    6.4134337    3.0791736 
 5480000   0.80517061  -0.28680342    1.9041037    1.1709831   -4.5136607    6.4177643    3.0750868 
 5490000   0.80236809  -0.22950506    1.9058707    1.1669073    -4.507492    6.4133627    3.0727781 
 5500000   0.80372482  -0.26209937    1.9038797    1.1688804   -4.5166826    6.4205622    3.0727601 
 5510000   0.79627123  -0.28587233    1.8990499    1.1580405   -4.5154769    6.4145268    3.0570903 
 5520000   0.80238943  -0.22832753      1.89728    1.1669384   -4.5163112    6.4135912    3.0642183 
 5530000    0.8001393  -0.18438266    1.9086963    1.1636659   -4.5069197     6.415616    3.0723622 
 5540000   0.80318668  -0.30751861    1.9015547    1.1680978   -4.5110498    6.4126045    3.0696525 
 5550000   0.80285026  -0.27769678    1.9027071    1.1676085   -4.5127512    6.4154583    3.0703156 
 5560000    0.8043967  -0.22964925    1.9058217    1.1698576   -4.5111435    6.4169653    3.0756793 
 5570000   0.79694498  -0.26121782    1.9105608    1.1590203    -4.504091    6.4146518    3.0695811 
 5580000   0.80374688  -0.29537985    1.8998484    1.1689125   -4.5125622    6.4124107    3.0687609 
 5590000   0.80329291  -0.28122028    1.9051575    1.1682523   -4.5105213    6.4156788    3.0734098 
 5600000   0.80473546  -0.24262698    1.9050404    1.1703502   -4.5123838    6.4174242    3.0753906 
 5610000   0.79872032  -0.28308366    1.9084099    1.1616022   -4.5069202    6.4153301    3.0700121 
 5620000   0.80078566  -0.20994863    1.9124141    1.1646059   -4.5024498    6.4148638      3.07702 
 5630000    0.8074248  -0.26419449    1.8988371    1.1742614   -4.5166742    6.4155113    3.0730985 
 5640000   0.79747724  -0.23502758    1.9100987    1.1597944   -4.5062829    6.4163816    3.0698931 
 5650000   0.80595325  -0.24183638     1.903827    1.1721213   -4.5106784    6.4145054    3.0759483 
 5660000   0.79998021  -0.27209632    1.8977372    1.1634346   -4.5152222    6.4129594    3.0611717 
 5670000   0.80045108  -0.22112897    1.9045015    1.1641193   -4.5103924    6.4148939    3.0686208 
 5680000   0.79516752  -0.25390181    1.9068756    1.1564353   -4.5090635    6.4159392    3.0633109 
 5690000   0.80079488  -0.24511859    1.9007116    1.1646193    -4.514006    6.4147176    3.0653309 
 5700000   0.79565066  -0.25746757    1.9047239     1.157138   -4.5122968    6.4170207    3.0618618 
 5710000   0.80236885  -0.26017012    1.9064379    1.1669084   -4.5084866    6.4149244    3.0733463 
 5720000   0.79563834   -0.3208821    1.9077228      1.15712   -4.5061276    6.4138504    3.0648428 
 5730000   0.80537555  -0.28491639    1.9044301    1.1712811   -4.5110687    6.4154988    3.0757112 
 5740000   0.79828603  -0.29542707    1.8999915    1.1609707   -4.5157159    6.4157074    3.0609621 
 5750000   0.80204058  -0.31628233    1.9070721     1.166431   -4.5074023    6.4144743    3.0735031 
 5760000   0.79742574  -0.29656342    1.8976353    1.1597195   -4.5151688    6.4128041    3.0573548 
 5770000   0.80090122  -0.28001447    1.9028467     1.164774   -4.5106731    6.4135197    3.0676207 
 5780000   0.80088415  -0.24413334    1.9069964    1.1647492   -4.5094248    6.4164212    3.0717455 
 5790000   0.79678092  -0.27541671    1.9093125    1.1587817   -4.5084561    6.4177687    3.0680943 
 5800000   0.80160377  -0.31524783    1.9001129    1.1657957    -4.515555    6.4156679    3.0659086 
 5810000   0.80220501  -0.23300623    1.9050363    1.1666701   -4.5100126    6.4150489    3.0717064 
 5820000   0.80286309   -0.1997066    1.9043819    1.1676272   -4.5089349    6.4133168    3.0720091 
 5830000   0.80446179  -0.30005141     1.896334    1.1699522    -4.520056      6.41639    3.0662863 
 5840000   0.80055027  -0.23166666    1.9022617    1.1642636   -4.5122934    6.4145551    3.0665253 
 5850000   0.80124169  -0.22979529    1.8948936    1.1652692   -4.5183898    6.4132833    3.0601627 
 5860000   0.80338373  -0.22480371    1.9056369    1.1683844   -4.5119179    6.4175548    3.0740213 
 5870000    0.7944912  -0.27356582     1.903548    1.1554517   -4.5106988    6.4142468    3.0589997 
 5880000   0.79991546  -0.20149577     1.905636    1.1633404   -4.5092742    6.4149103    3.0689764 
 5890000   0.80395637  -0.28598826    1.9030318    1.1692172   -4.5146941    6.4177259     3.072249 
 5900000   0.79328818  -0.34458033    1.9092751    1.1537021   -4.5090504    6.4183254    3.0629772 
 5910000   0.80002822   -0.3179344    1.8947579    1.1635044   -4.5189464    6.4137043    3.0582623 
 5920000   0.80461817   -0.2802336    1.8968558    1.1701797   -4.5162547    6.4131105    3.0670355 
 5930000   0.79950079  -0.27722547    1.9027119    1.1627373   -4.5130774    6.4157893    3.0654492 
 5940000   0.79816811  -0.25445051    1.9017056    1.1607992   -4.5105289    6.4122345    3.0625047 
 5950000   0.80203685  -0.25731059    1.9060066    1.1664256   -4.5071746    6.4131812    3.0724322 
 5960000   0.80146693   -0.3250728    1.8978537    1.1655967   -4.5176787    6.4155324    3.0634504 
 5970000   0.79527442  -0.22902271    1.8991188    1.1565908   -4.5153829    6.4145017    3.0557095 
 5980000   0.79748567  -0.34542735    1.9034537    1.1598067   -4.5132533    6.4167069    3.0632603 
 5990000   0.79422682  -0.23511469    1.9047636    1.1550672   -4.5109279    6.4156915    3.0598308 
 6000000   0.80267618  -0.26570394    1.9120821    1.1673554    -4.502635    6.4147172    3.0794375 
Loop time of 98929.5 on 216 procs for 6000000 steps with 27950 atoms

Performance: 26200.473 tau/day, 60.649 timesteps/s
99.8% CPU use with 216 MPI tasks x 1 OpenMP threads

MPI task timing breakdown:
Section |  min time  |  avg time  |  max time  |%varavg| %total
---------------------------------------------------------------
Pair    | 1273.6     | 1439.8     | 1662.5     | 175.8 |  1.46
Bond    | 16.948     | 20.253     | 24.041     |  27.6 |  0.02
Kspace  | 91008      | 91288      | 91500      |  29.1 | 92.28
Neigh   | 688.99     | 720.66     | 757.75     |  55.5 |  0.73
Comm    | 1436.6     | 1680.4     | 1888.8     | 285.4 |  1.70
Output  | 3.1917     | 3.2409     | 3.2505     |   0.3 |  0.00
Modify  | 3134.3     | 3274.9     | 3436.3     | 128.3 |  3.31
Other   |            | 502.1      |            |       |  0.51

Nlocal:    129.398 ave 198 max 111 min
Histogram: 38 98 38 22 7 5 2 4 1 1
Nghost:    956.532 ave 1095 max 889 min
Histogram: 17 42 42 53 25 18 10 6 2 1
Neighs:    4790.31 ave 10549 max 3674 min
Histogram: 85 75 30 14 3 2 5 1 0 1

Total # of neighbors = 1034706
Ave neighs/atom = 37.0199
Ave special neighs/atom = 0.62254
Neighbor list builds = 806748
Dangerous builds = 0
System init for write_restart ...
PPPM initialization ...
  using 12-bit tables for long-range coulomb (src/kspace.cpp:332)
  G vector (1/distance) = 1.24849
  grid = 125 125 125
  stencil order = 5
  estimated absolute RMS force accuracy = 0.000124849
  estimated relative force accuracy = 0.000124849
  using double precision FFTW3
  3d grid and FFT values/proc = 19683 9625
WARNING: Neighbor exclusions used with KSpace solver may give inconsistent Coulombic energies (src/neighbor.cpp:486)
Neighbor list info ...
  update every 1 steps, delay 0 steps, check yes
  max neighbors/atom: 2000, page size: 100000
  master list distance cutoff = 2.8
  ghost atom cutoff = 2.8
  binsize = 1.4, bins = 24 24 24
  7 neighbor lists, perpetual/occasional/extra = 2 5 0
  (1) pair lj/cut, perpetual
      attributes: half, newton on
      pair build: half/bin/newton
      stencil: half/bin/3d/newton
      bin: standard
  (2) pair coul/long, perpetual, skip from (1)
      attributes: half, newton on
      pair build: skip
      stencil: none
      bin: none
  (3) compute rdf, occasional, copy from (1)
      attributes: half, newton on
      pair build: copy
      stencil: none
      bin: none
  (4) compute rdf, occasional, copy from (1)
      attributes: half, newton on
      pair build: copy
      stencil: none
      bin: none
  (5) compute rdf, occasional, copy from (1)
      attributes: half, newton on
      pair build: copy
      stencil: none
      bin: none
  (6) compute rdf, occasional, copy from (1)
      attributes: half, newton on
      pair build: copy
      stencil: none
      bin: none
  (7) compute rdf, occasional, copy from (1)
      attributes: half, newton on
      pair build: copy
      stencil: none
      bin: none
PPPM initialization ...
  using 12-bit tables for long-range coulomb (src/kspace.cpp:332)
  G vector (1/distance) = 1.24849
  grid = 125 125 125
  stencil order = 5
  estimated absolute RMS force accuracy = 0.000124849
  estimated relative force accuracy = 0.000124849
  using double precision FFTW3
  3d grid and FFT values/proc = 19683 9625
WARNING: Neighbor exclusions used with KSpace solver may give inconsistent Coulombic energies (src/neighbor.cpp:486)
Neighbor list info ...
  update every 1 steps, delay 0 steps, check yes
  max neighbors/atom: 2000, page size: 100000
  master list distance cutoff = 2.8
  ghost atom cutoff = 2.8
  binsize = 1.4, bins = 24 24 24
  7 neighbor lists, perpetual/occasional/extra = 2 5 0
  (1) pair lj/cut, perpetual
      attributes: half, newton on
      pair build: half/bin/newton
      stencil: half/bin/3d/newton
      bin: standard
  (2) pair coul/long, perpetual, skip from (1)
      attributes: half, newton on
      pair build: skip
      stencil: none
      bin: none
  (3) compute rdf, occasional, copy from (1)
      attributes: half, newton on
      pair build: copy
      stencil: none
      bin: none
  (4) compute rdf, occasional, copy from (1)
      attributes: half, newton on
      pair build: copy
      stencil: none
      bin: none
  (5) compute rdf, occasional, copy from (1)
      attributes: half, newton on
      pair build: copy
      stencil: none
      bin: none
  (6) compute rdf, occasional, copy from (1)
      attributes: half, newton on
      pair build: copy
      stencil: none
      bin: none
  (7) compute rdf, occasional, copy from (1)
      attributes: half, newton on
      pair build: copy
      stencil: none
      bin: none
Setting up Verlet run ...
  Unit style    : lj
  Current step  : 6000000
  Time step     : 0.005
Per MPI rank memory allocation (min/avg/max) = 19.57 | 20.14 | 20.73 Mbytes
Step Lx Ly Lz Press Pxx Pyy Pzz PotEng Temp 
 6000000     32.55105     32.55105     32.55105  -0.12621039  0.036690812  -0.24368968   -0.1716323    1.9120821   0.80267618 
 6000010    33.202071    32.230342    32.230342  -0.22396978   -1.1478993   0.26836288    0.2076271    1.9227734   0.80695509 
 6000020    33.853092     31.91893     31.91893  -0.17702555   -1.4009546   0.47016433    0.3997136    1.9410311   0.82172445 
 6000030    34.504113    31.616374    31.616374 -0.040458598   -1.5060673   0.62900392   0.75568759    1.9642495   0.83684775 
 6000040    35.155134    31.322262    31.322262  0.056195349   -1.5319121     0.809275   0.89122312    1.9856013     0.856486 
 6000050    35.806155    31.036208    31.036208   0.13763394   -1.3702804   0.84969446    0.9334878    2.0066564   0.87525368 
 6000060    36.457176    30.757851    30.757851   0.24837832   -1.2592532    1.0047527   0.99963546    2.0308654   0.88951503 
 6000070    37.108197    30.486851    30.486851   0.30974386   -1.1318186    1.1052246   0.95582563    2.0418265    0.9115417 
 6000080    37.759218    30.222891    30.222891   0.40556318    -1.010947    1.1479312    1.0797053    2.0683223   0.92065028 
 6000090    38.410239     29.96567     29.96567   0.50147236    -0.966628    1.2246806    1.2463645    2.0799876   0.93931368 
 6000100     39.06126    29.714907    29.714907   0.49200337  -0.92950476    1.1787327    1.2267821    2.0899663   0.95786621 
Loop time of 2.0731 on 216 procs for 100 steps with 27950 atoms

Performance: 20838.350 tau/day, 48.237 timesteps/s
99.8% CPU use with 216 MPI tasks x 1 OpenMP threads

MPI task timing breakdown:
Section |  min time  |  avg time  |  max time  |%varavg| %total
---------------------------------------------------------------
Pair    | 0.015757   | 0.023038   | 0.055318   |   3.7 |  1.11
Bond    | 0.00013638 | 0.00025389 | 0.00054789 |   0.0 |  0.01
Kspace  | 1.4526     | 1.4859     | 1.4984     |   0.7 | 71.68
Neigh   | 0.041845   | 0.043828   | 0.046063   |   0.4 |  2.11
Comm    | 0.038357   | 0.046891   | 0.068495   |   2.6 |  2.26
Output  | 0.011373   | 0.022936   | 0.030975   |   1.5 |  1.11
Modify  | 0.21832    | 0.28606    | 0.37998    |   3.9 | 13.80
Other   |            | 0.1642     |            |       |  7.92

Nlocal:    129.398 ave 197 max 113 min
Histogram: 56 77 50 16 6 2 4 4 0 1
Nghost:    965.278 ave 1090 max 890 min
Histogram: 8 31 45 47 31 21 18 9 4 2
Neighs:    4798.53 ave 9976 max 3631 min
Histogram: 67 81 39 10 8 4 5 1 0 1

Total # of neighbors = 1036482
Ave neighs/atom = 37.0834
Ave special neighs/atom = 0.62254
Neighbor list builds = 49
Dangerous builds = 0
PPPM initialization ...
  using 12-bit tables for long-range coulomb (src/kspace.cpp:332)
  G vector (1/distance) = 1.25333
  grid = 144 120 120
  stencil order = 5
  estimated absolute RMS force accuracy = 0.000115026
  estimated relative force accuracy = 0.000115026
  using double precision FFTW3
  3d grid and FFT values/proc = 22599 10080
WARNING: Neighbor exclusions used with KSpace solver may give inconsistent Coulombic energies (src/neighbor.cpp:486)
Neighbor list info ...
  update every 1 steps, delay 0 steps, check yes
  max neighbors/atom: 2000, page size: 100000
  master list distance cutoff = 2.8
  ghost atom cutoff = 2.8
  binsize = 1.4, bins = 28 22 22
  7 neighbor lists, perpetual/occasional/extra = 2 5 0
  (1) pair lj/cut, perpetual
      attributes: half, newton on
      pair build: half/bin/newton
      stencil: half/bin/3d/newton
      bin: standard
  (2) pair coul/long, perpetual, skip from (1)
      attributes: half, newton on
      pair build: skip
      stencil: none
      bin: none
  (3) compute rdf, occasional, copy from (1)
      attributes: half, newton on
      pair build: copy
      stencil: none
      bin: none
  (4) compute rdf, occasional, copy from (1)
      attributes: half, newton on
      pair build: copy
      stencil: none
      bin: none
  (5) compute rdf, occasional, copy from (1)
      attributes: half, newton on
      pair build: copy
      stencil: none
      bin: none
  (6) compute rdf, occasional, copy from (1)
      attributes: half, newton on
      pair build: copy
      stencil: none
      bin: none
  (7) compute rdf, occasional, copy from (1)
      attributes: half, newton on
      pair build: copy
      stencil: none
      bin: none
Setting up Verlet run ...
  Unit style    : lj
  Current step  : 6000100
  Time step     : 0.005
Per MPI rank memory allocation (min/avg/max) = 19.82 | 20.31 | 20.88 Mbytes
Step Lx Ly Lz Press Pxx Pyy Pzz PotEng Temp 
 6000100     39.06126    29.714907    29.714907   0.55613937  -0.82006057   0.96294325    1.5255354    2.0954695    0.9578662 
 6010000     39.06126    29.714907    29.714907    -0.305331  -0.27552516  -0.32438483    -0.316083    1.8979563   0.80074824 
 6020000     39.06126    29.714907    29.714907   -0.2606124   -0.2789157  -0.25527729  -0.24764422    1.9094056   0.79952744 
 6030000     39.06126    29.714907    29.714907  -0.23872494  -0.25867939  -0.18595701  -0.27153842    1.9056069   0.79349444 
 6040000     39.06126    29.714907    29.714907  -0.21125902  -0.18158339  -0.23227429  -0.21991939    1.9043284   0.80129101 
 6050000     39.06126    29.714907    29.714907  -0.30163185  -0.30634742  -0.25452961  -0.34401853    1.9047375    0.7993478 
 6060000     39.06126    29.714907    29.714907  -0.26192478  -0.19770083  -0.30662426  -0.28144926    1.9023206   0.80272094 
 6070000     39.06126    29.714907    29.714907  -0.28121351  -0.33115401  -0.27353689  -0.23894964    1.9104758     0.800495 
 6080000     39.06126    29.714907    29.714907  -0.25746628  -0.19520023  -0.24556892  -0.33162968    1.9028147   0.80136984 
 6090000     39.06126    29.714907    29.714907  -0.25746126  -0.26781835  -0.18820593   -0.3163595     1.909143   0.80292893 
 6100000     39.06126    29.714907    29.714907   -0.3090488  -0.31289618    -0.272781  -0.34146922    1.9088396   0.80201787 
 6100100     39.06126    29.714907    29.714907  -0.29119379  -0.23097893  -0.29810105  -0.34450139    1.9077794   0.80040728 
Loop time of 1664.89 on 216 procs for 100000 steps with 27950 atoms

Performance: 25947.588 tau/day, 60.064 timesteps/s
99.8% CPU use with 216 MPI tasks x 1 OpenMP threads

MPI task timing breakdown:
Section |  min time  |  avg time  |  max time  |%varavg| %total
---------------------------------------------------------------
Pair    | 16.921     | 23.411     | 43.934     | 102.9 |  1.41
Bond    | 0.1929     | 0.29369    | 0.48503    |  11.9 |  0.02
Kspace  | 1518.4     | 1545.1     | 1556.2     |  17.6 | 92.81
Neigh   | 11.54      | 12.125     | 12.745     |   7.2 |  0.73
Comm    | 26.849     | 35.408     | 52.308     |  84.3 |  2.13
Output  | 0.042811   | 0.042859   | 0.043766   |   0.0 |  0.00
Modify  | 34.363     | 38.203     | 45.068     |  32.8 |  2.29
Other   |            | 10.3       |            |       |  0.62

Nlocal:    129.398 ave 188 max 107 min
Histogram: 11 75 61 33 14 11 4 4 2 1
Nghost:    963.079 ave 1093 max 889 min
Histogram: 11 42 39 34 35 34 12 7 0 2
Neighs:    4788.94 ave 8893 max 3355 min
Histogram: 15 99 37 21 22 13 4 1 2 2

Total # of neighbors = 1034412
Ave neighs/atom = 37.0094
Ave special neighs/atom = 0.62254
Neighbor list builds = 13443
Dangerous builds = 0
Total wall time: 32:24:44
