ITEM: TIMESTEP
7000000
ITEM: NUMBER OF ATOMS
475
ITEM: BOX BOUNDS pp pp pp
7.1354277009520928e-01 3.3076457229894366e+01
7.1354277009520928e-01 3.3076457229894366e+01
7.1354277009520928e-01 3.3076457229894366e+01
ITEM: ATOMS id mol type x y z 
27440 324 4 5.87685 1.24198 5.09785 
27447 324 4 4.95037 0.928598 5.30644 
27445 324 4 5.97457 1.99066 6.65675 
27446 324 4 5.25504 1.44482 6.15058 
27297 316 4 4.16916 5.85947 15.1079 
27296 316 4 4.60414 5.51464 15.9819 
27294 316 4 4.28505 5.81264 17.9337 
27295 316 4 4.64656 5.4975 17.0162 
27263 314 4 1.08938 7.6219 3.21513 
27187 310 4 1.06642 7.62768 3.16974 
27264 314 4 0.888048 6.66342 3.55078 
27186 310 4 0.873137 6.67067 3.51421 
27262 314 4 0.788979 8.60149 3.06662 
27188 310 4 0.762038 8.60629 3.02295 
27298 316 4 3.45815 6.4396 14.6285 
27299 316 4 2.66165 7.09957 14.6721 
27429 323 4 5.23749 7.53883 14.9322 
27373 320 4 5.22092 7.51582 14.9587 
27372 320 4 4.41502 8.16574 14.9562 
27430 323 4 4.42724 8.18312 14.9484 
27300 316 4 1.99307 7.66255 15.227 
27291 316 4 2.38531 7.35765 16.3625 
27289 316 4 3.65411 6.29853 15.8441 
27286 316 4 3.13906 6.7376 16.5804 
27290 316 4 2.90036 6.91858 15.6263 
27288 316 4 3.89281 6.11755 16.7983 
27374 320 4 5.92567 6.96341 15.4783 
27428 323 4 5.94685 6.97753 15.4358 
27421 323 4 5.40391 7.41304 16.1539 
27365 320 4 5.03216 7.69779 15.9237 
27366 320 4 5.59191 7.26815 16.6324 
27419 323 4 4.86097 7.84855 16.872 
27362 320 4 4.8434 7.87977 16.8888 
27301 316 4 1.63155 7.9777 16.1446 
27423 323 4 4.10116 8.45135 16.6283 
27364 320 4 4.28366 8.3094 16.1801 
27371 320 4 3.72391 8.73904 15.4715 
27431 323 4 3.7332 8.73777 15.48 
27370 320 4 3.33276 9.0821 16.3666 
27432 323 4 3.34135 9.05415 16.3845 
27422 323 4 4.6441 8.01584 15.9102 
27303 316 4 2.10896 7.61572 18.0528 
27292 316 4 2.62401 7.17666 17.3166 
27304 316 4 2.81997 7.0356 18.5322 
27287 316 4 3.37776 6.55661 17.5345 
27293 316 4 3.61647 6.37563 18.4886 
27425 323 4 5.07784 7.68127 17.8338 
27367 320 4 5.40315 7.45013 17.5974 
27420 323 4 5.62078 7.24576 17.1157 
27377 320 4 5.9629 7.02049 18.3061 
27437 323 4 5.98874 6.95934 18.264 
27302 316 4 1.67398 7.96056 17.1789 
27369 320 4 3.34639 9.10299 17.4016 
27433 323 4 3.35668 9.04749 17.4197 
27363 320 4 4.0949 8.49138 17.1452 
27380 320 4 3.76114 8.79612 18.2992 
27434 323 4 3.77508 8.71958 18.3081 
27368 320 4 4.65465 8.06174 17.8538 
27424 323 4 4.31803 8.28407 17.5901 
27436 323 4 5.2947 7.51398 18.7956 
27378 320 4 5.27179 7.59379 18.8214 
27379 320 4 4.46589 8.24372 18.8189 
27435 323 4 4.48445 8.15828 18.8117 
27240 313 4 5.51788 26.4848 0.838053 
27239 313 4 5.52575 25.9997 1.75265 
27126 307 4 5.56144 25.9746 1.82775 
27125 307 4 5.52834 26.4408 0.90397 
27238 313 4 5.91123 25.8927 2.70756 
27127 307 4 5.96633 25.8934 2.77715 
27335 318 4 1.32308 23.8643 27.1766 
27334 318 4 1.15106 22.9428 27.6161 
27336 318 4 1.06833 24.8601 27.0526 
27241 313 4 5.88971 27.218 32.5717 
27124 307 4 5.87591 27.1673 32.6163 
27449 324 4 5.77912 32.8562 3.53895 
27448 324 4 5.1422 32.9432 4.35052 
27451 324 4 7.63208 1.12007 3.12178 
27441 324 4 6.29122 1.02434 4.21411 
27442 324 4 7.2177 1.33772 4.00552 
27452 324 4 8.35161 1.66592 3.62795 
27439 324 4 6.38895 1.77301 5.77301 
27438 324 4 6.80333 1.55537 4.88927 
27443 324 4 7.7298 1.86875 4.68068 
27444 324 4 7.31543 2.0864 5.56442 
27453 324 4 8.65628 2.18214 4.47209 
27454 324 4 8.46446 2.53042 5.42802 
27456 324 4 6.91617 2.41987 6.68933 
27455 324 4 7.82753 2.61743 6.23958 
27427 323 4 6.36526 6.64962 16.3243 
27375 320 4 6.34042 6.65654 16.3759 
27426 323 4 6.38059 6.64296 17.3595 
27376 320 4 6.35405 6.67743 17.411 
27038 302 4 9.7718 11.0614 21.7484 
27089 305 4 9.75825 11.0917 21.7643 
27021 302 4 9.23924 11.4209 22.8082 
27081 305 4 9.24998 11.445 22.838 
27027 302 4 9.57165 10.5018 22.5961 
27090 305 4 9.58224 10.5285 22.615 
27028 302 4 9.19336 10.4348 23.5575 
27091 305 4 9.22817 10.4565 23.5852 
27029 302 4 8.7383 10.8782 24.375 
27092 305 4 8.79091 10.8949 24.415 
27036 302 4 9.48526 12.9666 21.2111 
27087 305 4 9.4478 12.9967 21.24 
27080 305 4 9.31338 12.1783 22.1609 
27026 302 4 9.3235 12.1517 22.1308 
27037 302 4 9.74017 11.9636 21.2414 
27088 305 4 9.70904 11.9951 21.261 
27086 305 4 9.04453 13.8281 21.7069 
27035 302 4 9.07535 13.8016 21.6655 
27078 305 4 8.58546 13.278 23.2839 
27025 302 4 8.99108 13.0708 22.3429 
27079 305 4 8.98112 13.0948 22.3839 
27020 302 4 8.90682 12.3399 23.0202 
27077 305 4 8.91772 12.3615 23.0609 
27024 302 4 8.57441 13.2589 23.2323 
27023 302 4 8.49015 12.528 23.9097 
27083 305 4 8.52206 12.5447 23.9609 
27022 302 4 8.82256 11.609 23.6976 
27082 305 4 8.85432 11.6282 23.7379 
27084 305 4 8.2532 14.1945 23.5069 
27033 302 4 8.242 14.1779 23.4444 
27085 305 4 8.60727 14.2665 22.5366 
27034 302 4 8.62028 14.245 22.483 
27031 302 4 8.07347 12.7162 24.7991 
27094 305 4 8.1264 12.7279 24.8609 
27030 302 4 8.32839 11.7132 24.8294 
27093 305 4 8.38764 11.7263 24.8819 
27032 302 4 8.04185 13.6184 24.2921 
27095 305 4 8.07719 13.6313 24.3576 
27219 312 4 11.2959 12.4079 26.6636 
27277 315 4 11.4278 12.369 26.6482 
27220 312 4 10.4889 12.982 26.9653 
27276 315 4 10.5944 12.8834 26.984 
27214 312 4 11.1284 15.0266 26.3243 
27274 315 4 10.0094 14.7959 26.9629 
27222 312 4 10.0249 14.9256 26.8793 
27221 312 4 10.0236 13.9035 27.0443 
27275 315 4 10.0753 13.7717 27.0992 
27213 312 4 10.8941 14.0911 26.5891 
27268 315 4 10.8883 14.5374 26.5618 
27269 315 4 11.1808 13.5811 26.5723 
27223 312 4 10.4923 15.7744 26.5146 
27224 312 4 11.3006 16.2224 26.0479 
27285 315 4 10.4145 15.6815 26.6117 
27273 315 4 11.4746 15.2351 26.1501 
27284 315 4 11.1821 16.1914 26.1396 
27117 307 4 6.41244 27.2896 1.08836 
27229 313 4 6.93498 27.411 1.9031 
27231 313 4 6.4231 26.6518 2.30533 
27118 307 4 6.25521 26.6932 1.87556 
27232 313 4 6.22643 26.9479 1.37057 
27115 307 4 6.94898 27.4119 1.92338 
27236 313 4 7.32833 26.8189 3.7726 
27120 307 4 7.48552 27.5342 2.75839 
27128 307 4 6.63452 26.2191 3.49778 
27129 307 4 7.38697 26.8644 3.79655 
27119 307 4 6.79175 26.8155 2.71058 
27230 313 4 7.13166 27.1149 2.83785 
27237 313 4 6.57102 26.1926 3.44691 
27130 307 4 8.02206 27.6564 3.59341 
27247 313 4 7.98025 27.6039 3.59736 
27121 307 4 7.64275 28.1305 1.97119 
27234 313 4 7.44685 28.1701 1.50086 
27116 307 4 7.10621 28.0083 1.13617 
27233 313 4 6.7383 27.707 0.968342 
27235 313 4 7.64353 27.874 2.43562 
27133 307 4 7.93163 28.9304 1.0696 
27244 313 4 7.95873 28.9292 1.09863 
27132 307 4 8.33652 28.8492 2.019 
27245 313 4 8.34421 28.8223 2.05354 
27246 313 4 8.35208 28.3371 2.96814 
27131 307 4 8.36962 28.3829 2.94278 
27450 324 4 6.69048 33.0538 3.0892 
27123 307 4 6.511 27.9593 32.4131 
27243 313 4 7.29894 28.6293 32.7222 
27122 307 4 7.26345 28.6046 32.7119 
27242 313 4 6.54163 28.003 32.3965 
27066 304 4 14.7343 11.3698 31.622 
27279 315 4 13.1197 12.8762 25.7097 
27217 312 4 13.0368 12.7832 25.7533 
27216 312 4 12.635 14.4665 25.6788 
27272 315 4 12.3534 14.9766 25.749 
27271 315 4 12.6459 14.0204 25.7596 
27280 315 4 13.5248 13.7619 25.3584 
27228 312 4 13.5042 13.632 25.3886 
27281 315 4 13.4589 14.786 25.2221 
27227 312 4 13.5055 14.6541 25.2236 
27283 315 4 12.1063 16.1887 25.6731 
27225 312 4 12.2332 16.1497 25.6043 
27226 312 4 13.0402 15.5756 25.3026 
27282 315 4 12.9397 15.6743 25.3373 
27215 312 4 11.9989 15.2142 25.8691 
27278 315 4 12.3521 12.3664 26.1818 
27218 312 4 12.2286 12.3352 26.22 
27212 312 4 11.5302 13.3434 26.3988 
27270 315 4 12.0596 13.3226 26.1712 
27211 312 4 12.4007 13.531 25.9436 
27267 315 4 11.7671 14.2789 26.1607 
27210 312 4 11.7646 14.2788 26.134 
27076 304 4 12.9414 12.2322 31.8279 
27075 304 4 12.6086 13.1703 32.1124 
27065 304 4 13.7194 11.5731 31.6484 
27059 304 4 14.1613 12.4236 31.9341 
27064 304 4 13.6059 13.2222 32.1661 
27058 304 4 14.6031 13.274 32.2198 
27060 304 4 15.1585 12.4754 31.9878 
27067 304 4 15.7139 11.6768 31.7558 
27068 304 4 16.396 12.4117 32.014 
27074 304 4 12.8102 14.1363 32.4257 
27073 304 4 13.4923 14.8712 32.6838 
27062 304 4 15.0449 14.1244 32.5055 
27063 304 4 14.0477 14.0726 32.4518 
27071 304 4 15.4868 14.9749 32.7912 
27070 304 4 16.2648 14.3158 32.6118 
27061 304 4 15.6004 13.3258 32.2735 
27069 304 4 16.5976 13.3776 32.3273 
27072 304 4 14.472 15.1781 32.8176 
27395 321 4 13.287 28.7989 5.25554 
27160 309 4 13.2894 28.8374 5.26746 
27171 309 4 12.3512 29.2192 5.48146 
27394 321 4 12.344 29.1805 5.44819 
27161 309 4 14.3207 28.9054 5.32954 
27396 321 4 14.3165 28.8676 5.34048 
27397 321 4 15.1568 29.368 5.68026 
27162 309 4 15.1685 29.405 5.65107 
27159 309 4 12.6968 30.2323 6.10602 
27393 321 4 11.7403 29.9099 5.86682 
27385 321 4 12.977 29.8297 5.86987 
27170 309 4 11.7573 29.9485 5.91421 
27154 309 4 13.4629 29.6768 5.78264 
27386 321 4 13.9633 29.6733 5.81601 
27155 309 4 14.4024 29.9606 5.97445 
27158 309 4 12.8703 31.0717 6.6212 
27392 321 4 11.6375 30.7919 6.39926 
27384 321 4 12.6238 30.6355 6.3454 
27169 309 4 11.6669 30.8299 6.44974 
27382 321 4 14.2431 31.1283 6.71322 
27387 321 4 14.5963 30.3226 6.23769 
27156 309 4 14.5759 30.8 6.48963 
27153 309 4 13.6364 30.5162 6.29782 
27381 321 4 13.61 30.479 6.29154 
27163 309 4 15.6058 30.2024 6.1459 
27399 321 4 15.4798 31.0481 6.71626 
27164 309 4 15.5155 31.0838 6.68143 
27398 321 4 15.5826 30.1661 6.18383 
27383 321 4 13.2568 31.2847 6.76708 
27168 309 4 12.1042 31.6273 6.94457 
27391 321 4 12.0633 31.59 6.90283 
27390 321 4 12.9036 32.0904 7.24261 
27167 309 4 12.9521 32.1269 7.2661 
27157 309 4 13.8099 31.3556 6.813 
27388 321 4 14.8761 31.7775 7.1349 
27165 309 4 14.9216 31.8132 7.11418 
27166 309 4 13.9833 32.195 7.32818 
27389 321 4 13.9331 32.1591 7.32755 
27145 308 4 12.2399 31.3076 27.5991 
27146 308 4 12.8845 31.9486 27.1036 
27147 308 4 13.7368 32.5363 27.0993 
27148 308 4 14.5684 32.9134 27.5872 
27144 308 4 11.9758 30.785 28.453 
27143 308 4 12.1629 30.521 29.4365 
27136 308 4 12.9113 31.1354 29.1865 
27137 308 4 12.9498 31.5287 28.2679 
27138 308 4 13.6982 32.1431 28.0179 
27134 308 4 13.6597 31.7498 28.9366 
27139 308 4 14.4082 32.3642 28.6867 
27149 308 4 15.1566 32.9786 28.4367 
27150 308 4 15.3437 32.7146 29.4202 
27142 308 4 12.7511 30.5863 30.286 
27141 308 4 13.5827 30.9633 30.7739 
27140 308 4 14.3696 31.971 29.6053 
27135 308 4 13.6212 31.3566 29.8553 
27151 308 4 15.0796 32.1921 30.2741 
27152 308 4 14.435 31.5511 30.7696 
27354 319 4 20.8827 5.15406 22.1717 
27415 322 4 20.8915 5.15904 22.1243 
27355 319 4 20.508 6.02347 21.7526 
27416 322 4 20.5415 6.05337 21.7376 
27405 322 4 20.9095 5.79822 22.8932 
27346 319 4 20.8843 5.82184 22.9161 
27404 322 4 21.2257 5.49161 23.7911 
27353 319 4 21.2582 4.64251 22.9897 
27414 322 4 21.2511 4.60724 22.9232 
27345 319 4 21.21 5.55775 23.824 
27352 319 4 21.534 4.62589 23.9875 
27413 322 4 21.5239 4.54583 23.92 
27411 322 4 21.5599 5.82419 25.4578 
27350 319 4 21.5374 5.96145 25.4763 
27351 319 4 21.6362 5.10865 24.8977 
27412 322 4 21.637 4.99127 24.8477 
27356 319 4 20.2346 7.01779 21.8448 
27417 322 4 20.295 7.05061 21.8665 
27461 325 4 22.2556 9.47845 21.6719 
27044 303 4 22.2651 9.48639 21.6646 
27469 325 4 21.7685 8.34772 21.814 
27053 303 4 21.7637 8.36095 21.7989 
27054 303 4 21.4496 9.14354 21.1982 
27470 325 4 21.4423 9.12339 21.2108 
27472 325 4 22.0681 10.9867 20.8411 
27056 303 4 22.0994 11.001 20.8407 
27471 325 4 21.552 10.0893 20.8547 
27055 303 4 21.5724 10.1099 20.8475 
27357 319 4 20.1358 7.87058 22.4234 
27418 322 4 20.2179 7.88353 22.4766 
27343 319 4 20.886 6.48962 23.6605 
27400 322 4 20.9275 6.4374 23.6621 
27347 319 4 20.5603 6.7537 22.7527 
27406 322 4 20.6112 6.744 22.7643 
27401 322 4 20.6292 7.38318 23.5332 
27348 319 4 20.562 7.42148 23.4971 
27358 319 4 20.238 8.35335 23.3336 
27407 322 4 20.331 8.32897 23.4043 
27349 319 4 20.8877 7.1574 24.405 
27402 322 4 20.9454 7.07658 24.431 
27360 319 4 20.8894 7.82518 25.1494 
27409 322 4 20.9634 7.71576 25.1999 
27361 319 4 21.264 6.95576 25.5685 
27410 322 4 21.3134 6.82143 25.5867 
27344 319 4 21.2117 6.22553 24.5684 
27403 322 4 21.2437 6.1308 24.56 
27408 322 4 20.6038 8.26756 24.4011 
27359 319 4 20.5138 8.33673 24.3313 
27106 306 4 21.8013 16.9701 5.87176 
27108 306 4 21.9189 18.2435 7.40961 
27107 306 4 21.6091 17.6877 6.59291 
27045 303 4 22.59 10.4151 21.4858 
27457 325 4 23.0688 9.83351 22.133 
27039 303 4 23.0806 9.82923 22.1309 
27040 303 4 23.4056 10.758 21.9521 
27463 325 4 23.3817 10.7652 21.9482 
27462 325 4 22.5685 10.4101 21.4871 
27460 325 4 22.7559 8.90184 22.3178 
27051 303 4 23.2719 8.08031 23.0822 
27467 325 4 23.2853 8.0919 23.0923 
27459 325 4 23.5692 9.2569 22.779 
27042 303 4 23.5712 9.24335 22.776 
27466 325 4 24.0695 8.68029 23.4249 
27050 303 4 24.0618 8.65747 23.4211 
27052 303 4 22.4307 7.97178 22.4884 
27468 325 4 22.443 7.97017 22.5027 
27043 303 4 22.7557 8.90051 22.3097 
27049 303 4 24.5888 9.5486 23.4142 
27465 325 4 24.5856 9.57769 23.4114 
27458 325 4 23.8821 10.1886 22.5941 
27041 303 4 23.8961 10.1721 22.5972 
27048 303 4 24.7117 10.5149 23.0635 
27464 325 4 24.6953 10.5436 23.0553 
27475 325 4 24.3692 11.3193 22.452 
27047 303 4 24.3975 11.2975 22.4629 
27104 306 4 23.3647 15.8106 5.41172 
27105 306 4 22.4439 16.283 5.43942 
27103 306 4 24.3171 15.6794 5.79608 
27097 306 4 23.8997 16.3817 6.37283 
27098 306 4 22.9631 16.6835 6.19449 
27113 306 4 25.3555 16.4803 7.30623 
27102 306 4 24.4189 16.7822 7.1279 
27114 306 4 25.0457 15.9245 6.48952 
27057 303 4 22.8893 11.5782 21.1796 
27046 303 4 23.7305 11.6867 21.7733 
27473 325 4 22.8524 11.5751 21.1737 
27474 325 4 23.6947 11.6968 21.7633 
27100 306 4 23.0649 17.7863 7.52631 
27101 306 4 24.0015 17.4845 7.70464 
27099 306 4 22.5457 17.3858 6.77124 
27096 306 4 23.4823 17.084 6.94957 
27109 306 4 22.6475 18.4886 8.10305 
27110 306 4 23.5998 18.3574 8.48742 
27112 306 4 25.1633 17.1979 8.02737 
27111 306 4 24.5207 17.885 8.45972 
27209 311 4 24.9631 24.8819 3.22825 
27015 301 4 24.9688 24.882 3.20846 
27208 311 4 24.5124 25.7121 2.80446 
27016 301 4 24.5262 25.7155 2.7828 
27198 311 4 25.3376 24.3914 4.05951 
27014 301 4 25.3352 24.3883 4.04147 
27018 301 4 23.875 27.4773 3.47002 
27206 311 4 23.8537 27.4703 3.49395 
27207 311 4 24.1064 26.6595 2.90172 
27017 301 4 24.1258 26.6654 2.87853 
27006 301 4 24.6051 25.9328 3.75574 
27197 311 4 24.5957 25.9308 3.77673 
27007 301 4 24.2795 26.8137 4.09935 
27196 311 4 24.2663 26.8099 4.12148 
27012 301 4 25.4931 24.8229 5.98735 
27199 311 4 25.5356 24.372 5.07553 
27013 301 4 25.5271 24.3666 5.05861 
27004 301 4 25.0886 25.4865 5.35802 
27005 301 4 25.0096 25.2692 4.38508 
27193 311 4 25.0915 25.4892 5.37653 
27192 311 4 25.0082 25.2705 4.40426 
27200 311 4 25.5041 24.8289 6.00406 
27003 301 4 24.763 26.3674 5.70163 
27194 311 4 24.7622 26.3683 5.72128 
27001 301 4 24.6841 26.1501 4.72869 
27002 301 4 24.3585 27.031 5.0723 
27191 311 4 24.6789 26.1496 4.749 
27195 311 4 24.3496 27.0286 5.09375 
27011 301 4 25.2424 25.6348 6.57884 
27201 311 4 25.2515 25.6396 6.59629 
27010 301 4 24.842 26.5847 6.67458 
27202 311 4 24.8454 26.587 6.69355 
27203 311 4 24.3948 27.4172 6.26976 
27009 301 4 24.3993 27.4182 6.24891 
27205 311 4 23.8222 27.9271 4.42248 
27019 301 4 23.841 27.9336 4.39876 
27204 311 4 24.0203 27.9077 5.4385 
27008 301 4 24.0329 27.9119 5.41591 
27265 314 4 32.6018 5.98286 3.98362 
27185 310 4 32.5969 5.99169 3.96404 
27183 310 4 30.7396 6.07232 4.70176 
27255 314 4 30.7293 6.06162 4.68202 
27184 310 4 31.6831 5.77268 4.39872 
27266 314 4 31.6788 5.76259 4.39769 
27174 310 4 30.6434 7.74862 4.27632 
27250 314 4 30.6435 7.74003 4.26272 
27249 314 4 31.1545 6.88114 4.29777 
27175 310 4 31.1558 6.89031 4.30461 
27172 310 4 31.572 7.70831 3.90746 
27248 314 4 31.5798 7.70065 3.91352 
27177 310 4 32.5007 7.66799 3.5386 
27253 314 4 32.516 7.66128 3.56433 
27254 314 4 32.0908 6.84176 3.94857 
27176 310 4 32.0845 6.85 3.93575 
27179 310 4 30.5472 9.42492 3.85088 
27259 314 4 30.5577 9.41845 3.84343 
27251 314 4 31.0687 8.55955 3.87848 
27173 310 4 31.0596 8.56661 3.87917 
27258 314 4 29.9086 8.73789 4.27627 
27180 310 4 29.908 8.74595 4.30071 
27252 314 4 32.005 8.52017 3.52928 
27178 310 4 31.9882 8.5263 3.51031 
27189 310 4 32.4045 9.34429 3.11316 
27260 314 4 31.4807 9.63872 3.42936 
27261 314 4 32.4302 9.33969 3.14503 
27190 310 4 31.4609 9.64393 3.4162 
27257 314 4 29.7072 7.77941 4.61192 
27181 310 4 29.7147 7.78893 4.64518 
27182 310 4 30.0191 6.81032 4.79197 
27256 314 4 30.0076 6.79982 4.76043 
27332 318 4 32.176 22.2244 28.9176 
27312 317 4 31.1517 26.9588 12.9948 
27323 317 4 31.338 25.9405 12.9812 
27322 317 4 31.6562 25.0807 13.4623 
27321 317 4 32.021 24.6099 14.3091 
27310 317 4 32.0825 25.5932 15.061 
27311 317 4 31.7432 25.8065 14.1448 
27307 317 4 31.578 27.4713 14.5935 
27305 317 4 31.8302 26.5323 14.8272 
27306 317 4 31.491 26.7455 13.911 
27320 317 4 32.3347 24.6542 15.2948 
27319 317 4 32.5132 25.2017 16.1552 
27308 317 4 31.9173 27.258 15.5097 
27317 317 4 32.3225 27.1241 16.6733 
27309 317 4 32.1695 26.319 15.7435 
27318 317 4 32.5088 26.1057 16.6597 
27337 318 4 32.818 25.6634 27.2774 
27327 318 4 32.8896 24.003 27.7654 
27331 318 4 31.3686 22.62 29.4309 
27325 318 4 31.7309 23.3808 28.8926 
27326 318 4 32.5273 23.2421 28.3038 
27333 318 4 32.9613 22.3426 28.2534 
27340 318 4 30.6726 25.3405 29.0922 
27329 318 4 31.6593 25.0412 28.4046 
27324 318 4 32.0933 24.1417 28.3542 
27330 318 4 31.2969 24.2804 28.9429 
27328 318 4 32.4556 24.9026 27.8158 
27339 318 4 31.2253 25.9408 28.455 
27338 318 4 32.0106 26.059 27.7907 
27342 318 4 30.7553 23.4233 29.6557 
27341 318 4 30.5006 24.4191 29.5317 
27313 317 4 31.1472 27.8628 13.4993 
27314 317 4 31.3258 28.4104 14.3597 
27316 317 4 32.0043 27.9838 16.1922 
27315 317 4 31.6395 28.4546 15.3453 
ITEM: TIMESTEP
7050000
ITEM: NUMBER OF ATOMS
475
ITEM: BOX BOUNDS pp pp pp
7.1354277009520928e-01 3.3076457229894366e+01
7.1354277009520928e-01 3.3076457229894366e+01
7.1354277009520928e-01 3.3076457229894366e+01
ITEM: ATOMS id mol type x y z 
27248 314 4 0.761403 5.60604 2.1651 
27172 310 4 0.77731 5.61252 2.15526 
27264 314 4 1.85503 4.24714 3.14372 
27186 310 4 1.93802 4.3074 3.1298 
27185 310 4 1.0848 3.77524 2.8834 
27265 314 4 0.992306 3.74691 2.86556 
27177 310 4 1.62877 5.40089 2.63517 
27187 310 4 2.48023 5.18926 3.11508 
27253 314 4 1.59306 5.35876 2.66238 
27263 314 4 2.42471 5.11149 3.15966 
27176 310 4 0.931054 4.69388 2.51933 
27254 314 4 0.876854 4.67648 2.51533 
27442 324 4 6.0969 0.945801 5.95312 
27441 324 4 5.72667 1.3719 6.77862 
27449 324 4 4.95653 0.949734 7.25688 
27448 324 4 5.18004 1.79862 7.80581 
27447 324 4 5.75637 2.64628 7.95136 
27296 316 4 4.97513 3.56818 14.6119 
27290 316 4 3.66833 5.35541 14.9257 
27289 316 4 4.21565 4.52505 14.8207 
27297 316 4 5.03973 4.53763 14.2543 
27298 316 4 4.6627 5.50034 14.2002 
27304 316 4 2.12045 3.5246 16.574 
27293 316 4 2.83807 2.82658 16.31 
27287 316 4 3.11482 3.66953 15.8486 
27288 316 4 3.9389 3.68211 15.2822 
27294 316 4 3.704 2.5803 15.7988 
27295 316 4 4.48622 2.85174 15.1772 
27302 316 4 1.80802 5.45676 16.1624 
27303 316 4 1.74343 4.48731 16.5199 
27286 316 4 3.39158 4.51247 15.3871 
27291 316 4 2.84425 5.34283 15.4921 
27292 316 4 2.5675 4.49989 15.9535 
27362 320 4 6.00153 5.58266 16.676 
27419 323 4 6.00196 5.56187 16.6718 
27377 320 4 5.71831 3.84667 17.6281 
27437 323 4 5.72151 3.82326 17.6199 
27378 320 4 4.94047 4.45398 17.9411 
27379 320 4 4.44694 5.36373 17.9152 
27436 323 4 4.95402 4.43503 17.9494 
27425 323 4 5.47799 4.99845 17.3106 
27435 323 4 4.46732 5.34873 17.9366 
27368 320 4 5.22423 5.47319 17.2956 
27367 320 4 5.85992 4.71466 17.152 
27424 323 4 5.1969 5.9407 17.1283 
27190 310 4 1.40543 7.48965 1.86862 
27260 314 4 1.45509 7.46725 1.93048 
27189 310 4 2.17274 7.02653 2.38693 
27178 310 4 1.47502 6.31952 2.27109 
27261 314 4 2.19381 6.97061 2.4592 
27252 314 4 1.4776 6.28833 2.31215 
27188 310 4 2.56614 6.18453 2.84317 
27262 314 4 2.54871 6.10835 2.90911 
27299 316 4 3.94508 6.19836 14.4642 
27300 316 4 3.07915 6.44464 14.9755 
27301 316 4 2.29693 6.17319 15.597 
27363 320 4 5.36584 6.34119 16.8196 
27370 320 4 5.43102 7.46082 16.2921 
27432 323 4 5.43978 7.44638 16.3072 
27423 323 4 5.72087 6.50412 16.4895 
27433 323 4 4.74778 7.08733 16.9885 
27369 320 4 4.73016 7.09972 16.9631 
27380 320 4 4.36996 6.33214 17.5572 
27434 323 4 4.39183 6.31954 17.5849 
27238 313 4 5.97477 25.4982 0.973002 
27127 307 4 5.95896 25.5158 0.925611 
27321 317 4 0.967486 23.6317 16.8158 
27310 317 4 0.845834 24.8505 16.6265 
27309 317 4 0.813584 25.8477 16.5586 
27317 317 4 0.855771 27.0861 16.5805 
27320 317 4 1.39149 24.4155 17.3429 
27319 317 4 1.52308 25.4324 17.4861 
27318 317 4 1.32699 26.4099 17.207 
27239 313 4 5.82169 25.7708 32.3489 
27126 307 4 5.80772 25.8034 32.3055 
27240 313 4 5.82446 26.4935 31.6076 
27241 313 4 5.98236 27.4726 31.3105 
27124 307 4 5.97774 27.5192 31.2919 
27125 307 4 5.81459 26.5367 31.5747 
27118 307 4 6.10277 26.635 32.7761 
27451 324 4 5.69697 32.4604 5.60588 
27450 324 4 5.14574 32.69 6.45165 
27443 324 4 6.86704 1.36797 5.47485 
27454 324 4 7.81359 1.78953 4.7949 
27453 324 4 7.23726 0.941869 4.64935 
27444 324 4 7.26696 2.21625 5.82209 
27455 324 4 8.0371 2.63842 5.34383 
27438 324 4 6.49682 1.79408 6.30036 
27440 324 4 6.1266 2.22018 7.12586 
27445 324 4 7.29666 3.49062 6.99483 
27439 324 4 6.89674 2.64235 6.6476 
27446 324 4 6.53111 3.2656 7.65452 
27456 324 4 7.84789 3.26106 6.14906 
27427 323 4 7.25615 4.03641 16.3551 
27375 320 4 7.27291 4.0656 16.3889 
27366 320 4 6.63722 4.82413 16.5324 
27373 320 4 7.55613 5.80159 15.4368 
27421 323 4 6.80703 5.18303 16.2152 
27429 323 4 7.53661 5.77501 15.407 
27428 323 4 7.6121 4.8042 15.7587 
27374 320 4 7.63311 4.83318 15.7948 
27365 320 4 6.77883 5.69213 16.0564 
27420 323 4 6.28306 4.61961 16.8541 
27426 323 4 6.56415 3.67736 17.0363 
27376 320 4 6.57204 3.70451 17.0599 
27364 320 4 6.14314 6.45066 16.2 
27422 323 4 6.52594 6.12529 16.033 
27431 323 4 6.28242 7.30047 15.7237 
27430 323 4 7.04991 6.68871 15.3941 
27372 320 4 7.06259 6.71134 15.4109 
27371 320 4 6.28475 7.31866 15.7239 
27089 305 4 8.49268 11.3101 22.1595 
27038 302 4 8.49251 11.4119 22.1015 
27090 305 4 8.48244 10.7698 23.0426 
27091 305 4 8.45611 10.7433 24.0772 
27028 302 4 8.47897 10.7564 23.9911 
27027 302 4 8.49785 10.8312 22.9586 
27092 305 4 8.42076 11.2377 24.9862 
27029 302 4 8.44095 11.2074 24.9222 
27037 302 4 8.46439 12.3428 21.6494 
27088 305 4 8.4841 12.2194 21.6646 
27087 305 4 8.45899 13.2541 21.6904 
27086 305 4 8.42409 14.1369 22.2302 
27036 302 4 8.42103 13.3746 21.7234 
27020 302 4 8.40749 12.7191 23.6129 
27077 305 4 8.42242 12.6873 23.6082 
27021 302 4 8.45267 11.7751 23.2858 
27081 305 4 8.45243 11.7286 23.3254 
27080 305 4 8.45326 12.4534 22.6364 
27026 302 4 8.43594 12.531 22.6311 
27079 305 4 8.42325 13.4121 22.9192 
27078 305 4 8.39242 13.6461 23.891 
27024 302 4 8.36231 13.663 23.9401 
27025 302 4 8.39076 13.4749 22.9583 
27085 305 4 8.38873 14.6313 23.1391 
27034 302 4 8.33601 14.6818 23.2348 
27035 302 4 8.37404 14.2307 22.3036 
27022 302 4 8.42422 11.9633 24.2675 
27082 305 4 8.42159 11.9625 24.2972 
27030 302 4 8.39395 12.0636 25.5025 
27093 305 4 8.38585 12.1205 25.5259 
27083 305 4 8.39158 12.9213 24.58 
27023 302 4 8.37904 12.9072 24.5947 
27094 305 4 8.36074 13.1552 25.5518 
27031 302 4 8.35059 13.0953 25.5765 
27084 305 4 8.36241 14.6048 24.1738 
27033 302 4 8.31714 14.607 24.2672 
27095 305 4 8.35216 14.0645 25.0569 
27032 302 4 8.32247 14.0263 25.1243 
27128 307 4 6.2278 25.7509 1.89738 
27237 313 4 6.2427 25.7487 1.94116 
27115 307 4 6.39782 27.4666 0.88373 
27119 307 4 6.31281 26.6088 1.39056 
27120 307 4 6.60786 27.4404 1.86111 
27230 313 4 6.47853 26.9529 1.76691 
27229 313 4 6.40338 27.4506 0.90274 
27231 313 4 6.18907 26.4744 0.937872 
27236 313 4 6.55368 26.4553 2.63107 
27129 307 4 6.54219 26.4457 2.59754 
27130 307 4 6.8179 27.4141 2.83849 
27247 313 4 6.82439 27.4285 2.85788 
27232 313 4 6.11392 26.972 32.4366 
27117 307 4 6.18778 27.4929 32.2693 
27132 307 4 6.98792 29.1299 1.82484 
27245 313 4 6.98506 29.1303 1.81946 
27235 313 4 6.69283 27.9291 1.73178 
27234 313 4 6.61768 28.4267 0.867609 
27121 307 4 6.69287 28.2983 1.35429 
27133 307 4 6.83668 29.4175 0.841848 
27244 313 4 6.83198 29.4029 0.832478 
27131 307 4 6.98105 28.3966 2.55566 
27246 313 4 6.98229 28.4076 2.56081 
27452 324 4 6.46252 32.6855 4.94619 
27170 309 4 11.4242 31.902 5.91722 
27393 321 4 11.3979 31.916 5.96651 
27123 307 4 6.25345 28.4876 31.5328 
27122 307 4 6.56784 29.1824 32.233 
27116 307 4 6.48283 28.3245 32.7398 
27243 313 4 6.56405 29.1524 32.2272 
27242 313 4 6.25307 28.4458 31.5373 
27233 313 4 6.32822 27.9482 32.4015 
27219 312 4 12.811 11.2509 25.8439 
27277 315 4 12.7701 11.2242 25.8484 
27276 315 4 12.172 11.28 26.6917 
27220 312 4 12.2237 11.3018 26.695 
27067 304 4 14.065 12.4689 2.34174 
27068 304 4 14.965 12.5998 1.84703 
27069 304 4 15.6406 13.2172 1.363 
27059 304 4 13.3396 14.0414 2.37622 
27064 304 4 13.3707 15.0148 2.14878 
27060 304 4 14.0962 13.4423 2.1143 
27058 304 4 14.1274 14.4156 1.88686 
27061 304 4 14.884 13.8164 1.62493 
27062 304 4 14.9151 14.7898 1.39749 
27070 304 4 15.9107 14.1558 1.01933 
27074 304 4 13.2897 16.2314 1.92668 
27075 304 4 12.6141 15.6139 2.41071 
27063 304 4 14.1585 15.3889 1.65941 
27073 304 4 14.1897 16.3623 1.43197 
27072 304 4 15.073 15.9715 1.05916 
27071 304 4 15.7029 15.1639 0.90812 
27066 304 4 13.1817 12.8596 2.71455 
27065 304 4 12.5518 13.6673 2.86559 
27076 304 4 12.344 14.6754 2.75438 
27211 312 4 13.2896 12.886 25.5312 
27270 315 4 13.0685 12.423 25.7481 
27278 315 4 13.3678 11.6869 25.1409 
27218 312 4 13.389 11.7196 25.1241 
27279 315 4 13.8052 12.544 24.7589 
27217 312 4 13.8029 12.5822 24.7285 
27216 312 4 13.2723 13.8554 25.7762 
27228 312 4 13.9417 13.6075 24.763 
27280 315 4 13.9649 13.5659 24.8046 
27281 315 4 13.8042 14.4788 25.2658 
27227 312 4 13.7682 14.521 25.2184 
27271 315 4 13.367 13.3625 25.5799 
27275 315 4 11.734 11.8392 27.4448 
27221 312 4 11.7845 11.8585 27.4494 
27212 312 4 12.7937 12.2203 26.0889 
27269 315 4 12.4706 12.2195 26.5235 
27213 312 4 12.2804 12.5241 26.8916 
27268 315 4 12.1712 12.9556 27.1307 
27267 315 4 12.7691 13.159 26.3553 
27210 312 4 12.7764 13.1898 26.3339 
27224 312 4 12.1637 14.6599 27.5437 
27214 312 4 12.2631 13.4936 27.1366 
27273 315 4 12.4697 13.8951 26.9625 
27215 312 4 12.759 14.1592 26.5789 
27272 315 4 13.0676 14.0985 26.1871 
27283 315 4 12.7681 15.0938 26.8622 
27284 315 4 12.1703 14.6311 27.5697 
27226 312 4 13.329 15.0777 25.9727 
27282 315 4 13.3661 15.038 26.0189 
27225 312 4 12.7417 15.1286 26.8239 
27222 312 4 11.611 12.772 27.9048 
27274 315 4 11.5733 12.7521 27.9061 
27223 312 4 11.7499 13.7973 27.9393 
27285 315 4 11.733 13.774 27.9518 
27396 321 4 13.1012 30.5656 4.15655 
27161 309 4 13.2053 30.5766 4.16458 
27160 309 4 12.27 30.9755 4.35944 
27395 321 4 12.1775 30.9745 4.38341 
27386 321 4 13.1996 30.9293 5.08288 
27154 309 4 12.7987 31.1363 5.1929 
27156 309 4 14.2791 30.9947 6.08092 
27397 321 4 14.0776 30.3516 4.42611 
27162 309 4 14.1733 30.3707 4.46858 
27163 309 4 14.9147 30.4131 5.18998 
27155 309 4 13.7504 30.8339 5.24747 
27387 321 4 14.0716 30.8415 5.56453 
27398 321 4 14.8452 30.3899 5.11986 
27399 321 4 15.1982 30.6702 6.05191 
27394 321 4 11.554 31.4688 5.0459 
27171 309 4 11.6181 31.4607 5.00095 
27385 321 4 12.426 31.3809 5.52756 
27159 309 4 12.3758 31.5996 5.97179 
27381 321 4 13.298 31.2931 6.00921 
27153 309 4 13.3275 31.2971 6.02635 
27382 321 4 14.17 31.2052 6.49086 
27165 309 4 15.0369 31.1336 7.05175 
27388 321 4 15.042 31.1174 6.97252 
27164 309 4 15.2308 30.6923 6.13549 
27384 321 4 12.5245 31.7447 6.45388 
27392 321 4 11.7509 32.1962 6.89856 
27158 309 4 12.9046 31.7603 6.80524 
27169 309 4 11.7403 32.1812 6.86273 
27168 309 4 12.4817 32.2236 7.58413 
27391 321 4 12.5184 32.2345 7.59231 
27383 321 4 13.3964 31.6568 6.93554 
27167 309 4 13.4497 32.0177 7.88813 
27390 321 4 13.4949 32.0205 7.86187 
27166 309 4 14.385 31.6187 7.69326 
27389 321 4 14.4186 31.6116 7.63501 
27157 309 4 13.8562 31.4579 6.85981 
27147 308 4 12.3483 30.5709 25.6605 
27148 308 4 13.0712 31.2893 25.4784 
27149 308 4 13.9501 31.7655 25.7482 
27145 308 4 12.0514 29.1906 27.0772 
27146 308 4 11.975 29.8027 26.2457 
27137 308 4 12.8523 29.7879 27.121 
27138 308 4 13.0008 30.478 26.4127 
27139 308 4 13.8016 31.0753 26.4565 
27140 308 4 14.4541 30.9824 27.2087 
27134 308 4 13.6532 30.3852 27.1648 
27150 308 4 14.7494 31.8718 26.3975 
27151 308 4 15.255 31.5797 27.2525 
27144 308 4 12.557 28.8986 27.9321 
27143 308 4 13.3564 29.0048 28.5815 
27142 308 4 14.2352 29.481 28.8513 
27141 308 4 14.9581 30.1994 28.6692 
27136 308 4 13.5048 29.695 27.8732 
27135 308 4 14.3057 30.2923 27.917 
27152 308 4 15.3314 30.9676 28.084 
27354 319 4 20.168 5.94966 24.6741 
27415 322 4 20.1942 5.90923 24.6816 
27345 319 4 21.8079 6.06877 25.2189 
27404 322 4 21.8406 6.06168 25.1979 
27414 322 4 20.8892 5.27232 25.1097 
27353 319 4 20.8405 5.30045 25.1192 
27413 322 4 21.8394 5.10362 25.4846 
27352 319 4 21.7798 5.11316 25.5124 
27355 319 4 19.9424 6.88684 24.2964 
27356 319 4 20.2242 7.86087 24.0872 
27416 322 4 19.9407 6.8437 24.315 
27417 322 4 20.1966 7.82535 24.1081 
27405 322 4 21.018 6.46448 24.7964 
27406 322 4 21.0192 7.42254 24.5096 
27347 319 4 21.0301 7.44262 24.5064 
27343 319 4 21.836 7.02437 24.9255 
27400 322 4 21.8418 7.01974 24.9112 
27346 319 4 21.002 6.48702 24.7998 
27348 319 4 21.864 7.97998 24.632 
27401 322 4 21.843 7.9778 24.6244 
27418 322 4 20.8933 8.59113 24.1165 
27357 319 4 20.9378 8.61076 24.1027 
27358 319 4 21.8921 8.93558 24.3386 
27407 322 4 21.8442 8.93586 24.3377 
27113 306 4 21.9551 14.0971 5.19427 
27114 306 4 21.0274 13.988 5.64085 
27104 306 4 20.3457 14.0554 7.51996 
27103 306 4 20.4384 13.9728 6.49211 
27097 306 4 21.3647 14.1554 6.82163 
27098 306 4 21.5327 14.2759 7.80007 
27102 306 4 22.1231 14.2175 6.17271 
27105 306 4 20.7744 14.2137 8.44899 
27106 306 4 21.6094 14.4054 9.03026 
27019 301 4 21.9895 27.3498 4.40361 
27204 311 4 21.7581 27.5178 5.39911 
27008 301 4 21.7867 27.5353 5.40178 
27205 311 4 21.9541 27.3279 4.40041 