#version1, 300 polymer chains each 30 monomers long, with 25 sheets each with 19 monomers and 8050 solvent partices
27475 atoms
8700 bonds
0 angles
5 atom types
1 bond types

0.00000 33.79000  xlo xhi
0.00000 33.79000  ylo yhi
0.00000 33.79000  zlo zhi

 Atoms

1 0 3 0 0.500000 0.500000 0.500000
2 17 2 0 0.500000 1.600000 0.500000
3 17 2 0 0.500000 2.700000 0.500000
4 17 2 0 0.500000 3.800000 0.500000
5 17 2 0 0.500000 4.900000 0.500000
6 17 2 0 0.500000 6.000000 0.500000
7 17 2 0 0.500000 7.100000 0.500000
8 17 2 0 0.500000 8.200000 0.500000
9 17 2 0 0.500000 9.300000 0.500000
10 17 2 0 0.500000 10.400000 0.500000
11 17 2 0 0.500000 11.500000 0.500000
12 17 2 0 0.500000 12.600000 0.500000
13 17 2 0 0.500000 13.700000 0.500000
14 17 2 0 0.500000 14.800000 0.500000
15 17 2 0 0.500000 15.900000 0.500000
16 17 2 0 0.500000 17.000000 0.500000
17 17 2 0 0.500000 18.100000 0.500000
18 17 2 0 0.500000 19.200000 0.500000
19 17 2 0 0.500000 20.300000 0.500000
20 17 2 0 0.500000 21.400000 0.500000
21 17 2 0 0.500000 22.500000 0.500000
22 17 2 0 0.500000 23.600000 0.500000
23 17 2 0 0.500000 24.700000 0.500000
24 17 2 0 0.500000 25.800000 0.500000
25 17 2 0 0.500000 26.900000 0.500000
26 17 2 0 0.500000 28.000000 0.500000
27 17 2 0 0.500000 29.100000 0.500000
28 17 2 0 0.500000 30.200000 0.500000
29 17 2 0 0.500000 31.300000 0.500000
30 17 2 0 0.500000 32.400000 0.500000
31 17 2 0 1.600000 32.400000 0.500000
32 0 1 0 1.600000 31.300000 0.500000
33 0 3 0 1.600000 30.200000 0.500000
34 0 1 0 1.600000 29.100000 0.500000
35 0 5 0 1.600000 28.000000 0.500000
36 0 3 0 1.600000 26.900000 0.500000
37 0 5 0 1.600000 25.800000 0.500000
38 0 3 0 1.600000 24.700000 0.500000
39 0 3 0 1.600000 23.600000 0.500000
40 0 3 0 1.600000 22.500000 0.500000
41 0 1 0 1.600000 21.400000 0.500000
42 0 1 0 1.600000 20.300000 0.500000
43 0 1 0 1.600000 19.200000 0.500000
44 0 3 0 1.600000 18.100000 0.500000
45 0 1 0 1.600000 17.000000 0.500000
46 0 3 0 1.600000 15.900000 0.500000
47 0 1 0 1.600000 14.800000 0.500000
48 0 1 0 1.600000 13.700000 0.500000
49 0 3 0 1.600000 12.600000 0.500000
50 0 3 0 1.600000 11.500000 0.500000
51 0 3 0 1.600000 10.400000 0.500000
52 0 1 0 1.600000 9.300000 0.500000
53 0 3 0 1.600000 8.200000 0.500000
54 0 5 0 1.600000 7.100000 0.500000
55 0 3 0 1.600000 6.000000 0.500000
56 0 5 0 1.600000 4.900000 0.500000
57 0 1 0 1.600000 3.800000 0.500000
58 0 1 0 1.600000 2.700000 0.500000
59 0 1 0 1.600000 1.600000 0.500000
60 0 3 0 1.600000 0.500000 0.500000
61 0 3 0 2.700000 0.500000 0.500000
62 0 1 0 2.700000 1.600000 0.500000
63 0 1 0 2.700000 2.700000 0.500000
64 0 3 0 2.700000 3.800000 0.500000
65 0 1 0 2.700000 4.900000 0.500000
66 0 1 0 2.700000 6.000000 0.500000
67 0 3 0 2.700000 7.100000 0.500000
68 0 1 0 2.700000 8.200000 0.500000
69 0 1 0 2.700000 9.300000 0.500000
70 0 1 0 2.700000 10.400000 0.500000
71 0 1 0 2.700000 11.500000 0.500000
72 0 3 0 2.700000 12.600000 0.500000
73 0 1 0 2.700000 13.700000 0.500000
74 0 3 0 2.700000 14.800000 0.500000
75 0 1 0 2.700000 15.900000 0.500000
76 0 1 0 2.700000 17.000000 0.500000
77 0 1 0 2.700000 18.100000 0.500000
78 0 1 0 2.700000 19.200000 0.500000
79 0 3 0 2.700000 20.300000 0.500000
80 0 5 0 2.700000 21.400000 0.500000
81 0 3 0 2.700000 22.500000 0.500000
82 0 1 0 2.700000 23.600000 0.500000
83 0 1 0 2.700000 24.700000 0.500000
84 0 1 0 2.700000 25.800000 0.500000
85 220 2 0 2.700000 26.900000 0.500000
86 220 2 0 2.700000 28.000000 0.500000
87 220 2 0 2.700000 29.100000 0.500000
88 220 2 0 2.700000 30.200000 0.500000
89 220 2 0 2.700000 31.300000 0.500000
90 220 2 0 2.700000 32.400000 0.500000
91 220 2 0 3.800000 32.400000 0.500000
92 220 2 0 3.800000 31.300000 0.500000
93 220 2 0 3.800000 30.200000 0.500000
94 220 2 0 3.800000 29.100000 0.500000
95 220 2 0 3.800000 28.000000 0.500000
96 220 2 0 3.800000 26.900000 0.500000
97 220 2 0 3.800000 25.800000 0.500000
98 220 2 0 3.800000 24.700000 0.500000
99 220 2 0 3.800000 23.600000 0.500000
100 220 2 0 3.800000 22.500000 0.500000
101 220 2 0 3.800000 21.400000 0.500000
102 220 2 0 3.800000 20.300000 0.500000
103 220 2 0 3.800000 19.200000 0.500000
104 220 2 0 3.800000 18.100000 0.500000
105 220 2 0 3.800000 17.000000 0.500000
106 220 2 0 3.800000 15.900000 0.500000
107 220 2 0 3.800000 14.800000 0.500000
108 220 2 0 3.800000 13.700000 0.500000
109 220 2 0 3.800000 12.600000 0.500000
110 220 2 0 3.800000 11.500000 0.500000
111 220 2 0 3.800000 10.400000 0.500000
112 220 2 0 3.800000 9.300000 0.500000
113 220 2 0 3.800000 8.200000 0.500000
114 220 2 0 3.800000 7.100000 0.500000
115 0 3 0 3.800000 6.000000 0.500000
116 0 3 0 3.800000 4.900000 0.500000
117 0 5 0 3.800000 3.800000 0.500000
118 0 3 0 3.800000 2.700000 0.500000
119 0 1 0 3.800000 1.600000 0.500000
120 0 3 0 3.800000 0.500000 0.500000
121 0 1 0 4.900000 0.500000 0.500000
122 0 1 0 4.900000 1.600000 0.500000
123 0 1 0 4.900000 2.700000 0.500000
124 0 1 0 4.900000 3.800000 0.500000
125 0 3 0 4.900000 4.900000 0.500000
126 0 1 0 4.900000 6.000000 0.500000
127 0 1 0 4.900000 7.100000 0.500000
128 0 1 0 4.900000 8.200000 0.500000
129 0 1 0 4.900000 9.300000 0.500000
130 0 3 0 4.900000 10.400000 0.500000
131 0 1 0 4.900000 11.500000 0.500000
132 0 3 0 4.900000 12.600000 0.500000
133 0 1 0 4.900000 13.700000 0.500000
134 0 1 0 4.900000 14.800000 0.500000
135 0 1 0 4.900000 15.900000 0.500000
136 0 1 0 4.900000 17.000000 0.500000
137 0 5 0 4.900000 18.100000 0.500000
138 0 5 0 4.900000 19.200000 0.500000
139 0 1 0 4.900000 20.300000 0.500000
140 0 3 0 4.900000 21.400000 0.500000
141 0 3 0 4.900000 22.500000 0.500000
142 0 1 0 4.900000 23.600000 0.500000
143 0 1 0 4.900000 24.700000 0.500000
144 0 1 0 4.900000 25.800000 0.500000
145 0 3 0 4.900000 26.900000 0.500000
146 0 3 0 4.900000 28.000000 0.500000
147 0 1 0 4.900000 29.100000 0.500000
148 0 3 0 4.900000 30.200000 0.500000
149 0 1 0 4.900000 31.300000 0.500000
150 0 1 0 4.900000 32.400000 0.500000
151 0 3 0 6.000000 32.400000 0.500000
152 0 1 0 6.000000 31.300000 0.500000
153 0 3 0 6.000000 30.200000 0.500000
154 0 3 0 6.000000 29.100000 0.500000
155 0 1 0 6.000000 28.000000 0.500000
156 0 3 0 6.000000 26.900000 0.500000
157 0 3 0 6.000000 25.800000 0.500000
158 0 3 0 6.000000 24.700000 0.500000
159 0 3 0 6.000000 23.600000 0.500000
160 0 3 0 6.000000 22.500000 0.500000
161 0 3 0 6.000000 21.400000 0.500000
162 0 3 0 6.000000 20.300000 0.500000
163 0 3 0 6.000000 19.200000 0.500000
164 0 3 0 6.000000 18.100000 0.500000
165 0 1 0 6.000000 17.000000 0.500000
166 0 5 0 6.000000 15.900000 0.500000
167 0 1 0 6.000000 14.800000 0.500000
168 0 3 0 6.000000 13.700000 0.500000
169 0 1 0 6.000000 12.600000 0.500000
170 0 3 0 6.000000 11.500000 0.500000
171 0 3 0 6.000000 10.400000 0.500000
172 0 3 0 6.000000 9.300000 0.500000
173 0 3 0 6.000000 8.200000 0.500000
174 0 1 0 6.000000 7.100000 0.500000
175 0 1 0 6.000000 6.000000 0.500000
176 0 1 0 6.000000 4.900000 0.500000
177 0 1 0 6.000000 3.800000 0.500000
178 0 1 0 6.000000 2.700000 0.500000
179 0 1 0 6.000000 1.600000 0.500000
180 0 3 0 6.000000 0.500000 0.500000
181 0 1 0 7.100000 0.500000 0.500000
182 0 1 0 7.100000 1.600000 0.500000
183 0 1 0 7.100000 2.700000 0.500000
184 0 3 0 7.100000 3.800000 0.500000
185 0 3 0 7.100000 4.900000 0.500000
186 0 3 0 7.100000 6.000000 0.500000
187 0 3 0 7.100000 7.100000 0.500000
188 0 1 0 7.100000 8.200000 0.500000
189 0 1 0 7.100000 9.300000 0.500000
190 0 3 0 7.100000 10.400000 0.500000
191 0 1 0 7.100000 11.500000 0.500000
192 0 3 0 7.100000 12.600000 0.500000
193 0 3 0 7.100000 13.700000 0.500000
194 0 3 0 7.100000 14.800000 0.500000
195 0 3 0 7.100000 15.900000 0.500000
196 0 1 0 7.100000 17.000000 0.500000
197 0 1 0 7.100000 18.100000 0.500000
198 0 3 0 7.100000 19.200000 0.500000
199 0 1 0 7.100000 20.300000 0.500000
200 0 3 0 7.100000 21.400000 0.500000
201 0 1 0 7.100000 22.500000 0.500000
202 0 3 0 7.100000 23.600000 0.500000
203 0 1 0 7.100000 24.700000 0.500000
204 0 1 0 7.100000 25.800000 0.500000
205 0 1 0 7.100000 26.900000 0.500000
206 0 3 0 7.100000 28.000000 0.500000
207 0 3 0 7.100000 29.100000 0.500000
208 0 3 0 7.100000 30.200000 0.500000
209 0 3 0 7.100000 31.300000 0.500000
210 0 3 0 7.100000 32.400000 0.500000
211 0 3 0 8.200000 32.400000 0.500000
212 0 5 0 8.200000 31.300000 0.500000
213 0 3 0 8.200000 30.200000 0.500000
214 0 3 0 8.200000 29.100000 0.500000
215 0 3 0 8.200000 28.000000 0.500000
216 0 3 0 8.200000 26.900000 0.500000
217 0 3 0 8.200000 25.800000 0.500000
218 0 3 0 8.200000 24.700000 0.500000
219 0 3 0 8.200000 23.600000 0.500000
220 0 1 0 8.200000 22.500000 0.500000
221 0 3 0 8.200000 21.400000 0.500000
222 0 3 0 8.200000 20.300000 0.500000
223 0 1 0 8.200000 19.200000 0.500000
224 0 3 0 8.200000 18.100000 0.500000
225 0 1 0 8.200000 17.000000 0.500000
226 0 1 0 8.200000 15.900000 0.500000
227 0 3 0 8.200000 14.800000 0.500000
228 0 3 0 8.200000 13.700000 0.500000
229 0 3 0 8.200000 12.600000 0.500000
230 0 3 0 8.200000 11.500000 0.500000
231 0 1 0 8.200000 10.400000 0.500000
232 0 3 0 8.200000 9.300000 0.500000
233 0 3 0 8.200000 8.200000 0.500000
234 0 1 0 8.200000 7.100000 0.500000
235 0 5 0 8.200000 6.000000 0.500000
236 0 5 0 8.200000 4.900000 0.500000
237 0 1 0 8.200000 3.800000 0.500000
238 0 3 0 8.200000 2.700000 0.500000
239 0 1 0 8.200000 1.600000 0.500000
240 0 1 0 8.200000 0.500000 0.500000
241 113 2 0 9.300000 0.500000 0.500000
242 113 2 0 9.300000 1.600000 0.500000
243 113 2 0 9.300000 2.700000 0.500000
244 113 2 0 9.300000 3.800000 0.500000
245 113 2 0 9.300000 4.900000 0.500000
246 113 2 0 9.300000 6.000000 0.500000
247 113 2 0 9.300000 7.100000 0.500000
248 113 2 0 9.300000 8.200000 0.500000
249 113 2 0 9.300000 9.300000 0.500000
250 113 2 0 9.300000 10.400000 0.500000
251 113 2 0 9.300000 11.500000 0.500000
252 113 2 0 9.300000 12.600000 0.500000
253 113 2 0 9.300000 13.700000 0.500000
254 113 2 0 9.300000 14.800000 0.500000
255 113 2 0 9.300000 15.900000 0.500000
256 113 2 0 9.300000 17.000000 0.500000
257 113 2 0 9.300000 18.100000 0.500000
258 113 2 0 9.300000 19.200000 0.500000
259 113 2 0 9.300000 20.300000 0.500000
260 113 2 0 9.300000 21.400000 0.500000
261 113 2 0 9.300000 22.500000 0.500000
262 113 2 0 9.300000 23.600000 0.500000
263 113 2 0 9.300000 24.700000 0.500000
264 113 2 0 9.300000 25.800000 0.500000
265 113 2 0 9.300000 26.900000 0.500000
266 113 2 0 9.300000 28.000000 0.500000
267 113 2 0 9.300000 29.100000 0.500000
268 113 2 0 9.300000 30.200000 0.500000
269 113 2 0 9.300000 31.300000 0.500000
270 113 2 0 9.300000 32.400000 0.500000
271 0 3 0 10.400000 32.400000 0.500000
272 0 3 0 10.400000 31.300000 0.500000
273 0 1 0 10.400000 30.200000 0.500000
274 0 1 0 10.400000 29.100000 0.500000
275 0 3 0 10.400000 28.000000 0.500000
276 0 1 0 10.400000 26.900000 0.500000
277 0 3 0 10.400000 25.800000 0.500000
278 0 3 0 10.400000 24.700000 0.500000
279 0 3 0 10.400000 23.600000 0.500000
280 0 3 0 10.400000 22.500000 0.500000
281 0 1 0 10.400000 21.400000 0.500000
282 0 3 0 10.400000 20.300000 0.500000
283 0 1 0 10.400000 19.200000 0.500000
284 0 3 0 10.400000 18.100000 0.500000
285 0 1 0 10.400000 17.000000 0.500000
286 0 1 0 10.400000 15.900000 0.500000
287 0 1 0 10.400000 14.800000 0.500000
288 0 1 0 10.400000 13.700000 0.500000
289 0 3 0 10.400000 12.600000 0.500000
290 0 3 0 10.400000 11.500000 0.500000
291 0 1 0 10.400000 10.400000 0.500000
292 0 3 0 10.400000 9.300000 0.500000
293 0 3 0 10.400000 8.200000 0.500000
294 0 3 0 10.400000 7.100000 0.500000
295 0 1 0 10.400000 6.000000 0.500000
296 0 1 0 10.400000 4.900000 0.500000
297 0 1 0 10.400000 3.800000 0.500000
298 0 3 0 10.400000 2.700000 0.500000
299 0 1 0 10.400000 1.600000 0.500000
300 33 2 0 10.400000 0.500000 0.500000
301 33 2 0 11.500000 0.500000 0.500000
302 33 2 0 11.500000 1.600000 0.500000
303 33 2 0 11.500000 2.700000 0.500000
304 33 2 0 11.500000 3.800000 0.500000
305 33 2 0 11.500000 4.900000 0.500000
306 33 2 0 11.500000 6.000000 0.500000
307 33 2 0 11.500000 7.100000 0.500000
308 33 2 0 11.500000 8.200000 0.500000
309 33 2 0 11.500000 9.300000 0.500000
310 33 2 0 11.500000 10.400000 0.500000
311 33 2 0 11.500000 11.500000 0.500000
312 33 2 0 11.500000 12.600000 0.500000
313 33 2 0 11.500000 13.700000 0.500000
314 33 2 0 11.500000 14.800000 0.500000
315 33 2 0 11.500000 15.900000 0.500000
316 33 2 0 11.500000 17.000000 0.500000
317 33 2 0 11.500000 18.100000 0.500000
318 33 2 0 11.500000 19.200000 0.500000
319 33 2 0 11.500000 20.300000 0.500000
320 33 2 0 11.500000 21.400000 0.500000
321 33 2 0 11.500000 22.500000 0.500000
322 33 2 0 11.500000 23.600000 0.500000
323 33 2 0 11.500000 24.700000 0.500000
324 33 2 0 11.500000 25.800000 0.500000
325 33 2 0 11.500000 26.900000 0.500000
326 33 2 0 11.500000 28.000000 0.500000
327 33 2 0 11.500000 29.100000 0.500000
328 33 2 0 11.500000 30.200000 0.500000
329 33 2 0 11.500000 31.300000 0.500000
330 0 5 0 11.500000 32.400000 0.500000
331 0 1 0 12.600000 32.400000 0.500000
332 0 3 0 12.600000 31.300000 0.500000
333 0 1 0 12.600000 30.200000 0.500000
334 0 1 0 12.600000 29.100000 0.500000
335 0 3 0 12.600000 28.000000 0.500000
336 0 3 0 12.600000 26.900000 0.500000
337 0 1 0 12.600000 25.800000 0.500000
338 0 3 0 12.600000 24.700000 0.500000
339 0 3 0 12.600000 23.600000 0.500000
340 0 3 0 12.600000 22.500000 0.500000
341 0 1 0 12.600000 21.400000 0.500000
342 0 1 0 12.600000 20.300000 0.500000
343 0 5 0 12.600000 19.200000 0.500000
344 0 1 0 12.600000 18.100000 0.500000
345 0 1 0 12.600000 17.000000 0.500000
346 0 3 0 12.600000 15.900000 0.500000
347 0 1 0 12.600000 14.800000 0.500000
348 0 3 0 12.600000 13.700000 0.500000
349 0 3 0 12.600000 12.600000 0.500000
350 0 3 0 12.600000 11.500000 0.500000
351 0 3 0 12.600000 10.400000 0.500000
352 0 1 0 12.600000 9.300000 0.500000
353 0 5 0 12.600000 8.200000 0.500000
354 0 1 0 12.600000 7.100000 0.500000
355 0 3 0 12.600000 6.000000 0.500000
356 0 1 0 12.600000 4.900000 0.500000
357 0 3 0 12.600000 3.800000 0.500000
358 0 3 0 12.600000 2.700000 0.500000
359 0 1 0 12.600000 1.600000 0.500000
360 0 1 0 12.600000 0.500000 0.500000
361 0 3 0 13.700000 0.500000 0.500000
362 0 3 0 13.700000 1.600000 0.500000
363 0 1 0 13.700000 2.700000 0.500000
364 0 1 0 13.700000 3.800000 0.500000
365 0 5 0 13.700000 4.900000 0.500000
366 0 3 0 13.700000 6.000000 0.500000
367 0 1 0 13.700000 7.100000 0.500000
368 0 1 0 13.700000 8.200000 0.500000
369 0 1 0 13.700000 9.300000 0.500000
370 0 1 0 13.700000 10.400000 0.500000
371 0 3 0 13.700000 11.500000 0.500000
372 0 1 0 13.700000 12.600000 0.500000
373 0 1 0 13.700000 13.700000 0.500000
374 0 3 0 13.700000 14.800000 0.500000
375 0 3 0 13.700000 15.900000 0.500000
376 0 1 0 13.700000 17.000000 0.500000
377 0 1 0 13.700000 18.100000 0.500000
378 41 2 0 13.700000 19.200000 0.500000
379 41 2 0 13.700000 20.300000 0.500000
380 41 2 0 13.700000 21.400000 0.500000
381 41 2 0 13.700000 22.500000 0.500000
382 41 2 0 13.700000 23.600000 0.500000
383 41 2 0 13.700000 24.700000 0.500000
384 41 2 0 13.700000 25.800000 0.500000
385 41 2 0 13.700000 26.900000 0.500000
386 41 2 0 13.700000 28.000000 0.500000
387 41 2 0 13.700000 29.100000 0.500000
388 41 2 0 13.700000 30.200000 0.500000
389 41 2 0 13.700000 31.300000 0.500000
390 41 2 0 13.700000 32.400000 0.500000
391 41 2 0 14.800000 32.400000 0.500000
392 41 2 0 14.800000 31.300000 0.500000
393 41 2 0 14.800000 30.200000 0.500000
394 41 2 0 14.800000 29.100000 0.500000
395 41 2 0 14.800000 28.000000 0.500000
396 41 2 0 14.800000 26.900000 0.500000
397 41 2 0 14.800000 25.800000 0.500000
398 41 2 0 14.800000 24.700000 0.500000
399 41 2 0 14.800000 23.600000 0.500000
400 41 2 0 14.800000 22.500000 0.500000
401 41 2 0 14.800000 21.400000 0.500000
402 41 2 0 14.800000 20.300000 0.500000
403 41 2 0 14.800000 19.200000 0.500000
404 41 2 0 14.800000 18.100000 0.500000
405 41 2 0 14.800000 17.000000 0.500000
406 41 2 0 14.800000 15.900000 0.500000
407 41 2 0 14.800000 14.800000 0.500000
408 0 3 0 14.800000 13.700000 0.500000
409 0 5 0 14.800000 12.600000 0.500000
410 0 1 0 14.800000 11.500000 0.500000
411 0 1 0 14.800000 10.400000 0.500000
412 0 3 0 14.800000 9.300000 0.500000
413 0 3 0 14.800000 8.200000 0.500000
414 0 1 0 14.800000 7.100000 0.500000
415 0 1 0 14.800000 6.000000 0.500000
416 0 3 0 14.800000 4.900000 0.500000
417 0 1 0 14.800000 3.800000 0.500000
418 0 1 0 14.800000 2.700000 0.500000
419 0 1 0 14.800000 1.600000 0.500000
420 0 3 0 14.800000 0.500000 0.500000
421 0 1 0 15.900000 0.500000 0.500000
422 0 3 0 15.900000 1.600000 0.500000
423 0 1 0 15.900000 2.700000 0.500000
424 0 3 0 15.900000 3.800000 0.500000
425 0 3 0 15.900000 4.900000 0.500000
426 0 3 0 15.900000 6.000000 0.500000
427 0 1 0 15.900000 7.100000 0.500000
428 0 1 0 15.900000 8.200000 0.500000
429 0 3 0 15.900000 9.300000 0.500000
430 0 1 0 15.900000 10.400000 0.500000
431 0 3 0 15.900000 11.500000 0.500000
432 0 3 0 15.900000 12.600000 0.500000
433 0 1 0 15.900000 13.700000 0.500000
434 0 3 0 15.900000 14.800000 0.500000
435 0 3 0 15.900000 15.900000 0.500000
436 0 1 0 15.900000 17.000000 0.500000
437 0 3 0 15.900000 18.100000 0.500000
438 185 2 0 15.900000 19.200000 0.500000
439 185 2 0 15.900000 20.300000 0.500000
440 185 2 0 15.900000 21.400000 0.500000
441 185 2 0 15.900000 22.500000 0.500000
442 185 2 0 15.900000 23.600000 0.500000
443 185 2 0 15.900000 24.700000 0.500000
444 185 2 0 15.900000 25.800000 0.500000
445 185 2 0 15.900000 26.900000 0.500000
446 185 2 0 15.900000 28.000000 0.500000
447 185 2 0 15.900000 29.100000 0.500000
448 185 2 0 15.900000 30.200000 0.500000
449 185 2 0 15.900000 31.300000 0.500000
450 185 2 0 15.900000 32.400000 0.500000
451 185 2 0 17.000000 32.400000 0.500000
452 185 2 0 17.000000 31.300000 0.500000
453 185 2 0 17.000000 30.200000 0.500000
454 185 2 0 17.000000 29.100000 0.500000
455 185 2 0 17.000000 28.000000 0.500000
456 185 2 0 17.000000 26.900000 0.500000
457 185 2 0 17.000000 25.800000 0.500000
458 185 2 0 17.000000 24.700000 0.500000
459 185 2 0 17.000000 23.600000 0.500000
460 185 2 0 17.000000 22.500000 0.500000
461 185 2 0 17.000000 21.400000 0.500000
462 185 2 0 17.000000 20.300000 0.500000
463 185 2 0 17.000000 19.200000 0.500000
464 185 2 0 17.000000 18.100000 0.500000
465 185 2 0 17.000000 17.000000 0.500000
466 185 2 0 17.000000 15.900000 0.500000
467 185 2 0 17.000000 14.800000 0.500000
468 0 1 0 17.000000 13.700000 0.500000
469 0 3 0 17.000000 12.600000 0.500000
470 0 1 0 17.000000 11.500000 0.500000
471 0 1 0 17.000000 10.400000 0.500000
472 0 1 0 17.000000 9.300000 0.500000
473 0 3 0 17.000000 8.200000 0.500000
474 0 3 0 17.000000 7.100000 0.500000
475 0 1 0 17.000000 6.000000 0.500000
476 0 3 0 17.000000 4.900000 0.500000
477 0 1 0 17.000000 3.800000 0.500000
478 0 3 0 17.000000 2.700000 0.500000
479 0 1 0 17.000000 1.600000 0.500000
480 0 3 0 17.000000 0.500000 0.500000
481 0 5 0 18.100000 0.500000 0.500000
482 0 1 0 18.100000 1.600000 0.500000
483 0 3 0 18.100000 2.700000 0.500000
484 0 1 0 18.100000 3.800000 0.500000
485 0 1 0 18.100000 4.900000 0.500000
486 0 3 0 18.100000 6.000000 0.500000
487 0 1 0 18.100000 7.100000 0.500000
488 0 3 0 18.100000 8.200000 0.500000
489 0 1 0 18.100000 9.300000 0.500000
490 0 1 0 18.100000 10.400000 0.500000
491 0 1 0 18.100000 11.500000 0.500000
492 0 3 0 18.100000 12.600000 0.500000
493 0 3 0 18.100000 13.700000 0.500000
494 0 3 0 18.100000 14.800000 0.500000
495 0 1 0 18.100000 15.900000 0.500000
496 0 5 0 18.100000 17.000000 0.500000
497 0 3 0 18.100000 18.100000 0.500000
498 0 3 0 18.100000 19.200000 0.500000
499 0 3 0 18.100000 20.300000 0.500000
500 0 3 0 18.100000 21.400000 0.500000
501 0 3 0 18.100000 22.500000 0.500000
502 290 2 0 18.100000 23.600000 0.500000
503 290 2 0 18.100000 24.700000 0.500000
504 290 2 0 18.100000 25.800000 0.500000
505 290 2 0 18.100000 26.900000 0.500000
506 290 2 0 18.100000 28.000000 0.500000
507 290 2 0 18.100000 29.100000 0.500000
508 290 2 0 18.100000 30.200000 0.500000
509 290 2 0 18.100000 31.300000 0.500000
510 290 2 0 18.100000 32.400000 0.500000
511 290 2 0 19.200000 32.400000 0.500000
512 290 2 0 19.200000 31.300000 0.500000
513 290 2 0 19.200000 30.200000 0.500000
514 290 2 0 19.200000 29.100000 0.500000
515 290 2 0 19.200000 28.000000 0.500000
516 290 2 0 19.200000 26.900000 0.500000
517 290 2 0 19.200000 25.800000 0.500000
518 290 2 0 19.200000 24.700000 0.500000
519 290 2 0 19.200000 23.600000 0.500000
520 290 2 0 19.200000 22.500000 0.500000
521 290 2 0 19.200000 21.400000 0.500000
522 290 2 0 19.200000 20.300000 0.500000
523 290 2 0 19.200000 19.200000 0.500000
524 290 2 0 19.200000 18.100000 0.500000
525 290 2 0 19.200000 17.000000 0.500000
526 290 2 0 19.200000 15.900000 0.500000
527 290 2 0 19.200000 14.800000 0.500000
528 290 2 0 19.200000 13.700000 0.500000
529 290 2 0 19.200000 12.600000 0.500000
530 290 2 0 19.200000 11.500000 0.500000
531 290 2 0 19.200000 10.400000 0.500000
532 0 3 0 19.200000 9.300000 0.500000
533 0 3 0 19.200000 8.200000 0.500000
534 0 3 0 19.200000 7.100000 0.500000
535 0 5 0 19.200000 6.000000 0.500000
536 0 3 0 19.200000 4.900000 0.500000
537 0 3 0 19.200000 3.800000 0.500000
538 0 3 0 19.200000 2.700000 0.500000
539 0 1 0 19.200000 1.600000 0.500000
540 0 3 0 19.200000 0.500000 0.500000
541 0 1 0 20.300000 0.500000 0.500000
542 296 2 0 20.300000 1.600000 0.500000
543 296 2 0 20.300000 2.700000 0.500000
544 296 2 0 20.300000 3.800000 0.500000
545 296 2 0 20.300000 4.900000 0.500000
546 296 2 0 20.300000 6.000000 0.500000
547 296 2 0 20.300000 7.100000 0.500000
548 296 2 0 20.300000 8.200000 0.500000
549 296 2 0 20.300000 9.300000 0.500000
550 296 2 0 20.300000 10.400000 0.500000
551 296 2 0 20.300000 11.500000 0.500000
552 296 2 0 20.300000 12.600000 0.500000
553 296 2 0 20.300000 13.700000 0.500000
554 296 2 0 20.300000 14.800000 0.500000
555 296 2 0 20.300000 15.900000 0.500000
556 296 2 0 20.300000 17.000000 0.500000
557 296 2 0 20.300000 18.100000 0.500000
558 296 2 0 20.300000 19.200000 0.500000
559 296 2 0 20.300000 20.300000 0.500000
560 296 2 0 20.300000 21.400000 0.500000
561 296 2 0 20.300000 22.500000 0.500000
562 296 2 0 20.300000 23.600000 0.500000
563 296 2 0 20.300000 24.700000 0.500000
564 296 2 0 20.300000 25.800000 0.500000
565 296 2 0 20.300000 26.900000 0.500000
566 296 2 0 20.300000 28.000000 0.500000
567 296 2 0 20.300000 29.100000 0.500000
568 296 2 0 20.300000 30.200000 0.500000
569 296 2 0 20.300000 31.300000 0.500000
570 296 2 0 20.300000 32.400000 0.500000
571 296 2 0 21.400000 32.400000 0.500000
572 0 3 0 21.400000 31.300000 0.500000
573 0 3 0 21.400000 30.200000 0.500000
574 0 3 0 21.400000 29.100000 0.500000
575 0 1 0 21.400000 28.000000 0.500000
576 0 3 0 21.400000 26.900000 0.500000
577 0 1 0 21.400000 25.800000 0.500000
578 0 3 0 21.400000 24.700000 0.500000
579 0 3 0 21.400000 23.600000 0.500000
580 0 1 0 21.400000 22.500000 0.500000
581 0 3 0 21.400000 21.400000 0.500000
582 0 3 0 21.400000 20.300000 0.500000
583 0 1 0 21.400000 19.200000 0.500000
584 0 1 0 21.400000 18.100000 0.500000
585 0 3 0 21.400000 17.000000 0.500000
586 0 1 0 21.400000 15.900000 0.500000
587 0 3 0 21.400000 14.800000 0.500000
588 0 3 0 21.400000 13.700000 0.500000
589 0 3 0 21.400000 12.600000 0.500000
590 0 1 0 21.400000 11.500000 0.500000
591 0 3 0 21.400000 10.400000 0.500000
592 0 3 0 21.400000 9.300000 0.500000
593 0 1 0 21.400000 8.200000 0.500000
594 0 3 0 21.400000 7.100000 0.500000
595 0 3 0 21.400000 6.000000 0.500000
596 0 3 0 21.400000 4.900000 0.500000
597 0 1 0 21.400000 3.800000 0.500000
598 0 3 0 21.400000 2.700000 0.500000
599 0 1 0 21.400000 1.600000 0.500000
600 0 3 0 21.400000 0.500000 0.500000
601 0 3 0 22.500000 0.500000 0.500000
602 0 1 0 22.500000 1.600000 0.500000
603 0 1 0 22.500000 2.700000 0.500000
604 0 3 0 22.500000 3.800000 0.500000
605 0 1 0 22.500000 4.900000 0.500000
606 0 1 0 22.500000 6.000000 0.500000
607 0 1 0 22.500000 7.100000 0.500000
608 0 3 0 22.500000 8.200000 0.500000
609 0 1 0 22.500000 9.300000 0.500000
610 0 3 0 22.500000 10.400000 0.500000
611 0 1 0 22.500000 11.500000 0.500000
612 0 1 0 22.500000 12.600000 0.500000
613 0 3 0 22.500000 13.700000 0.500000
614 0 3 0 22.500000 14.800000 0.500000
615 0 3 0 22.500000 15.900000 0.500000
616 0 3 0 22.500000 17.000000 0.500000
617 0 3 0 22.500000 18.100000 0.500000
618 0 5 0 22.500000 19.200000 0.500000
619 171 2 0 22.500000 20.300000 0.500000
620 171 2 0 22.500000 21.400000 0.500000
621 171 2 0 22.500000 22.500000 0.500000
622 171 2 0 22.500000 23.600000 0.500000
623 171 2 0 22.500000 24.700000 0.500000
624 171 2 0 22.500000 25.800000 0.500000
625 171 2 0 22.500000 26.900000 0.500000
626 171 2 0 22.500000 28.000000 0.500000
627 171 2 0 22.500000 29.100000 0.500000
628 171 2 0 22.500000 30.200000 0.500000
629 171 2 0 22.500000 31.300000 0.500000
630 171 2 0 22.500000 32.400000 0.500000
631 171 2 0 23.600000 32.400000 0.500000
632 171 2 0 23.600000 31.300000 0.500000
633 171 2 0 23.600000 30.200000 0.500000
634 171 2 0 23.600000 29.100000 0.500000
635 171 2 0 23.600000 28.000000 0.500000
636 171 2 0 23.600000 26.900000 0.500000
637 171 2 0 23.600000 25.800000 0.500000
638 171 2 0 23.600000 24.700000 0.500000
639 171 2 0 23.600000 23.600000 0.500000
640 171 2 0 23.600000 22.500000 0.500000
641 171 2 0 23.600000 21.400000 0.500000
642 171 2 0 23.600000 20.300000 0.500000
643 171 2 0 23.600000 19.200000 0.500000
644 171 2 0 23.600000 18.100000 0.500000
645 171 2 0 23.600000 17.000000 0.500000
646 171 2 0 23.600000 15.900000 0.500000
647 171 2 0 23.600000 14.800000 0.500000
648 171 2 0 23.600000 13.700000 0.500000
649 0 1 0 23.600000 12.600000 0.500000
650 0 1 0 23.600000 11.500000 0.500000
651 0 1 0 23.600000 10.400000 0.500000
652 0 3 0 23.600000 9.300000 0.500000
653 0 3 0 23.600000 8.200000 0.500000
654 0 5 0 23.600000 7.100000 0.500000
655 0 1 0 23.600000 6.000000 0.500000
656 0 3 0 23.600000 4.900000 0.500000
657 0 1 0 23.600000 3.800000 0.500000
658 0 3 0 23.600000 2.700000 0.500000
659 0 1 0 23.600000 1.600000 0.500000
660 0 1 0 23.600000 0.500000 0.500000
661 0 1 0 24.700000 0.500000 0.500000
662 0 1 0 24.700000 1.600000 0.500000
663 0 3 0 24.700000 2.700000 0.500000
664 0 1 0 24.700000 3.800000 0.500000
665 0 1 0 24.700000 4.900000 0.500000
666 0 1 0 24.700000 6.000000 0.500000
667 0 3 0 24.700000 7.100000 0.500000
668 0 1 0 24.700000 8.200000 0.500000
669 0 3 0 24.700000 9.300000 0.500000
670 0 1 0 24.700000 10.400000 0.500000
671 0 1 0 24.700000 11.500000 0.500000
672 0 3 0 24.700000 12.600000 0.500000
673 0 3 0 24.700000 13.700000 0.500000
674 245 2 0 24.700000 14.800000 0.500000
675 245 2 0 24.700000 15.900000 0.500000
676 245 2 0 24.700000 17.000000 0.500000
677 245 2 0 24.700000 18.100000 0.500000
678 245 2 0 24.700000 19.200000 0.500000
679 245 2 0 24.700000 20.300000 0.500000
680 245 2 0 24.700000 21.400000 0.500000
681 245 2 0 24.700000 22.500000 0.500000
682 245 2 0 24.700000 23.600000 0.500000
683 245 2 0 24.700000 24.700000 0.500000
684 245 2 0 24.700000 25.800000 0.500000
685 245 2 0 24.700000 26.900000 0.500000
686 245 2 0 24.700000 28.000000 0.500000
687 245 2 0 24.700000 29.100000 0.500000
688 245 2 0 24.700000 30.200000 0.500000
689 245 2 0 24.700000 31.300000 0.500000
690 245 2 0 24.700000 32.400000 0.500000
691 245 2 0 25.800000 32.400000 0.500000
692 245 2 0 25.800000 31.300000 0.500000
693 245 2 0 25.800000 30.200000 0.500000
694 245 2 0 25.800000 29.100000 0.500000
695 245 2 0 25.800000 28.000000 0.500000
696 245 2 0 25.800000 26.900000 0.500000
697 245 2 0 25.800000 25.800000 0.500000
698 245 2 0 25.800000 24.700000 0.500000
699 245 2 0 25.800000 23.600000 0.500000
700 245 2 0 25.800000 22.500000 0.500000
701 245 2 0 25.800000 21.400000 0.500000
702 245 2 0 25.800000 20.300000 0.500000
703 245 2 0 25.800000 19.200000 0.500000
704 0 3 0 25.800000 18.100000 0.500000
705 0 3 0 25.800000 17.000000 0.500000
706 0 3 0 25.800000 15.900000 0.500000
707 0 3 0 25.800000 14.800000 0.500000
708 0 1 0 25.800000 13.700000 0.500000
709 0 3 0 25.800000 12.600000 0.500000
710 0 3 0 25.800000 11.500000 0.500000
711 0 3 0 25.800000 10.400000 0.500000
712 0 1 0 25.800000 9.300000 0.500000
713 0 1 0 25.800000 8.200000 0.500000
714 0 5 0 25.800000 7.100000 0.500000
715 0 1 0 25.800000 6.000000 0.500000
716 0 3 0 25.800000 4.900000 0.500000
717 0 1 0 25.800000 3.800000 0.500000
718 0 3 0 25.800000 2.700000 0.500000
719 0 3 0 25.800000 1.600000 0.500000
720 0 3 0 25.800000 0.500000 0.500000
721 0 3 0 26.900000 0.500000 0.500000
722 0 3 0 26.900000 1.600000 0.500000
723 0 3 0 26.900000 2.700000 0.500000
724 0 3 0 26.900000 3.800000 0.500000
725 0 3 0 26.900000 4.900000 0.500000
726 0 1 0 26.900000 6.000000 0.500000
727 0 3 0 26.900000 7.100000 0.500000
728 0 3 0 26.900000 8.200000 0.500000
729 0 1 0 26.900000 9.300000 0.500000
730 0 1 0 26.900000 10.400000 0.500000
731 0 3 0 26.900000 11.500000 0.500000
732 0 3 0 26.900000 12.600000 0.500000
733 0 3 0 26.900000 13.700000 0.500000
734 0 3 0 26.900000 14.800000 0.500000
735 0 3 0 26.900000 15.900000 0.500000
736 0 3 0 26.900000 17.000000 0.500000
737 0 3 0 26.900000 18.100000 0.500000
738 0 3 0 26.900000 19.200000 0.500000
739 0 1 0 26.900000 20.300000 0.500000
740 0 3 0 26.900000 21.400000 0.500000
741 0 3 0 26.900000 22.500000 0.500000
742 0 1 0 26.900000 23.600000 0.500000
743 0 1 0 26.900000 24.700000 0.500000
744 0 1 0 26.900000 25.800000 0.500000
745 0 3 0 26.900000 26.900000 0.500000
746 0 3 0 26.900000 28.000000 0.500000
747 0 1 0 26.900000 29.100000 0.500000
748 0 3 0 26.900000 30.200000 0.500000
749 0 3 0 26.900000 31.300000 0.500000
750 0 1 0 26.900000 32.400000 0.500000
751 0 3 0 28.000000 32.400000 0.500000
752 0 3 0 28.000000 31.300000 0.500000
753 0 3 0 28.000000 30.200000 0.500000
754 0 1 0 28.000000 29.100000 0.500000
755 0 1 0 28.000000 28.000000 0.500000
756 0 1 0 28.000000 26.900000 0.500000
757 0 1 0 28.000000 25.800000 0.500000
758 0 1 0 28.000000 24.700000 0.500000
759 0 3 0 28.000000 23.600000 0.500000
760 0 1 0 28.000000 22.500000 0.500000
761 0 1 0 28.000000 21.400000 0.500000
762 0 3 0 28.000000 20.300000 0.500000
763 0 3 0 28.000000 19.200000 0.500000
764 0 3 0 28.000000 18.100000 0.500000