ITEM: TIMESTEP
0
ITEM: NUMBER OF ATOMS
950
ITEM: BOX BOUNDS pp pp pp
0.0000000000000000e+00 3.3789999999999999e+01
0.0000000000000000e+00 3.3789999999999999e+01
0.0000000000000000e+00 3.3789999999999999e+01
ITEM: ATOMS id mol type x y z 
117 0 5 3.8 3.8 0.5 
56 0 5 1.6 4.9 0.5 
2821 0 5 4.9 0.5 3.5 
3605 0 5 0.5 4.9 4.5 
4562 0 5 2.7 1.6 5.5 
7202 0 5 0.5 1.6 8.5 
7318 0 5 3.8 2.7 8.5 
8222 0 5 4.9 1.6 9.5 
9064 0 5 2.7 3.8 10.5 
9065 0 5 2.7 4.9 10.5 
9116 0 5 3.8 4.9 10.5 
9902 0 5 0.5 1.6 11.5 
11702 0 5 0.5 1.6 13.5 
12656 0 5 1.6 4.9 14.5 
13558 0 5 1.6 2.7 15.5 
16323 0 5 4.9 2.7 18.5 
18124 0 5 4.9 3.8 20.5 
18005 0 5 0.5 4.9 20.5 
19863 0 5 2.7 2.7 22.5 
19865 0 5 2.7 4.9 22.5 
20704 0 5 0.5 3.8 23.5 
21720 0 5 3.8 0.5 24.5 
21662 0 5 2.7 1.6 24.5 
21663 0 5 2.7 2.7 24.5 
24361 0 5 2.7 0.5 27.5 
24362 0 5 2.7 1.6 27.5 
24358 0 5 1.6 2.7 27.5 
24365 0 5 2.7 4.9 27.5 
25262 0 5 2.7 1.6 28.5 
26102 0 5 0.5 1.6 29.5 
54 0 5 1.6 7.1 0.5 
2755 0 5 1.6 6 3.5 
2753 0 5 1.6 8.2 3.5 
3669 0 5 2.7 9.3 4.5 
4626 0 5 4.9 6 5.5 
4613 0 5 3.8 8.2 5.5 
5470 0 5 2.7 10.4 6.5 
6413 0 5 3.8 8.2 7.5 
8227 0 5 4.9 7.1 9.5 
11707 0 5 0.5 7.1 13.5 
13551 0 5 1.6 10.4 15.5 
15426 0 5 4.9 6 17.5 
16270 0 5 2.7 10.4 18.5 
18054 0 5 1.6 7.1 20.5 
18906 0 5 0.5 6 21.5 
18908 0 5 0.5 8.2 21.5 
19915 0 5 3.8 6 22.5 
19928 0 5 4.9 8.2 22.5 
20751 0 5 1.6 10.4 23.5 
22506 0 5 0.5 6 25.5 
24426 0 5 4.9 6 27.5 
24307 0 5 0.5 7.1 27.5 
24310 0 5 0.5 10.4 27.5 
25270 0 5 2.7 10.4 28.5 
26107 0 5 0.5 7.1 29.5 
974 0 5 2.7 14.8 1.5 
2712 0 5 0.5 12.6 3.5 
3709 0 5 3.8 12.6 4.5 
4548 0 5 1.6 13.7 5.5 
4633 0 5 4.9 13.7 5.5 
4514 0 5 0.5 14.8 5.5 
5531 0 5 4.9 11.5 6.5 
5449 0 5 1.6 12.6 6.5 
5507 0 5 3.8 14.8 6.5 
7334 0 5 4.9 14.8 8.5 
10008 0 5 3.8 13.7 11.5 
10814 0 5 0.5 14.8 12.5 
10934 0 5 4.9 14.8 12.5 
11714 0 5 0.5 14.8 13.5 
11807 0 5 3.8 14.8 13.5 
12612 0 5 0.5 12.6 14.5 
14448 0 5 1.6 13.7 16.5 
15312 0 5 0.5 12.6 17.5 
15346 0 5 1.6 15.9 17.5 
22511 0 5 0.5 11.5 25.5 
22549 0 5 1.6 12.6 25.5 
25310 0 5 3.8 11.5 28.5 
137 0 5 4.9 18.1 0.5 
138 0 5 4.9 19.2 0.5 
80 0 5 2.7 21.4 0.5 
1003 0 5 3.8 19.2 1.5 
1000 0 5 3.8 22.5 1.5 
3617 0 5 0.5 18.1 4.5 
4576 0 5 2.7 17 5.5 
4641 0 5 4.9 22.5 5.5 
5505 0 5 3.8 17 6.5 
5442 0 5 1.6 20.3 6.5 
6317 0 5 0.5 18.1 7.5 
7245 0 5 1.6 17 8.5 
7339 0 5 4.9 20.3 8.5 
7241 0 5 1.6 21.4 8.5 
8204 0 5 3.8 18.1 9.5 
8203 0 5 3.8 19.2 9.5 
8202 0 5 3.8 20.3 9.5 
9077 0 5 2.7 18.1 10.5 
9921 0 5 0.5 22.5 11.5 
10880 0 5 2.7 21.4 12.5 
10881 0 5 2.7 22.5 12.5 
11776 0 5 2.7 17 13.5 
11778 0 5 2.7 19.2 13.5 
11802 0 5 3.8 20.3 13.5 
13520 0 5 0.5 21.4 15.5 
14416 0 5 0.5 17 16.5 
14476 0 5 2.7 17 16.5 
14444 0 5 1.6 18.1 16.5 
14478 0 5 2.7 19.2 16.5 
15376 0 5 2.7 17 17.5 
15437 0 5 4.9 18.1 17.5 
15402 0 5 3.8 20.3 17.5 
16277 0 5 2.7 18.1 18.5 
18080 0 5 2.7 21.4 20.5 
18021 0 5 0.5 22.5 20.5 
18945 0 5 1.6 17 21.5 
19004 0 5 3.8 18.1 21.5 
19936 0 5 4.9 17 22.5 
19842 0 5 1.6 20.3 22.5 
21645 0 5 1.6 17 24.5 
24345 0 5 1.6 17 27.5 
25220 0 5 0.5 21.4 28.5 
26178 0 5 2.7 19.2 29.5 
37 0 5 1.6 25.8 0.5 
35 0 5 1.6 28 0.5 
998 0 5 3.8 24.7 1.5 
2844 0 5 4.9 25.8 3.5 
4538 0 5 1.6 24.7 5.5 
4535 0 5 1.6 28 5.5 
5497 0 5 3.8 25.8 6.5 
9142 0 5 4.9 23.6 10.5 
10042 0 5 4.9 23.6 11.5 
10825 0 5 0.5 26.9 12.5 
11738 0 5 1.6 24.7 13.5 
13646 0 5 4.9 28 15.5 
14424 0 5 0.5 25.8 16.5 
14497 0 5 3.8 25.8 16.5 
14435 0 5 1.6 28 16.5 
15322 0 5 0.5 23.6 17.5 
15385 0 5 2.7 26.9 17.5 
15395 0 5 3.8 28 17.5 
16286 0 5 2.7 28 18.5 
17198 0 5 3.8 24.7 19.5 
20723 0 5 0.5 24.7 23.5 
23496 0 5 3.8 26.9 26.5 
25282 0 5 2.7 23.6 28.5 
25283 0 5 2.7 24.7 28.5 
26137 0 5 1.6 25.8 29.5 
26135 0 5 1.6 28 29.5 
26186 0 5 2.7 28 29.5 
1048 0 5 4.9 30.2 1.5 
1830 0 5 0.5 32.4 2.5 
1891 0 5 3.8 32.4 2.5 
2790 0 5 2.7 32.4 3.5 
4649 0 5 4.9 31.3 5.5 
4530 0 5 0.5 32.4 5.5 
5492 0 5 3.8 31.3 6.5 
7350 0 5 4.9 32.4 8.5 
9150 0 5 4.9 32.4 10.5 
10827 0 5 0.5 29.1 12.5 
11732 0 5 1.6 31.3 13.5 
12748 0 5 4.9 30.2 14.5 
13534 0 5 1.6 29.1 15.5 
14434 0 5 1.6 29.1 16.5 
14431 0 5 1.6 32.4 16.5 
15388 0 5 2.7 30.2 17.5 
15448 0 5 4.9 30.2 17.5 
15392 0 5 3.8 31.3 17.5 
15450 0 5 4.9 32.4 17.5 
16291 0 5 3.8 32.4 18.5 
17249 0 5 4.9 31.3 19.5 
17191 0 5 3.8 32.4 19.5 
18994 0 5 3.8 29.1 21.5 
20849 0 5 4.9 31.3 23.5 
21630 0 5 0.5 32.4 24.5 
23548 0 5 4.9 30.2 26.5 
236 0 5 8.2 4.9 0.5 
1083 0 5 7.1 2.7 1.5 
2097 0 5 10.4 3.8 2.5 
2940 0 5 8.2 0.5 3.5 
4799 0 5 10.4 1.6 5.5 
4736 0 5 8.2 4.9 5.5 
5576 0 5 6 4.9 6.5 
6537 0 5 8.2 3.8 7.5 
7497 0 5 10.4 3.8 8.5 
8400 0 5 10.4 0.5 9.5 
8337 0 5 8.2 3.8 9.5 
8336 0 5 8.2 4.9 9.5 
11097 0 5 10.4 3.8 12.5 
12899 0 5 10.4 1.6 14.5 
13676 0 5 6 4.9 15.5 
14637 0 5 8.2 3.8 16.5 
18240 0 5 8.2 0.5 20.5 
19080 0 5 6 0.5 21.5 
19978 0 5 6 2.7 22.5 
20038 0 5 8.2 2.7 22.5 
21841 0 5 9.3 0.5 24.5 
235 0 5 8.2 6 0.5 
2094 0 5 10.4 7.1 2.5 
9186 0 5 7.1 6 10.5 
9293 0 5 10.4 8.2 10.5 
10146 0 5 9.3 6 11.5 
11872 0 5 6 9.3 13.5 
13671 0 5 6 10.4 15.5 
14587 0 5 7.1 7.1 16.5 
14588 0 5 7.1 8.2 16.5 
16493 0 5 10.4 8.2 18.5 
16372 0 5 6 9.3 18.5 
16432 0 5 8.2 9.3 18.5 
16449 0 5 9.3 9.3 18.5 
16371 0 5 6 10.4 18.5 
17349 0 5 9.3 9.3 19.5 
19972 0 5 6 9.3 22.5 
20935 0 5 8.2 6 23.5 
20873 0 5 6 8.2 23.5 
20933 0 5 8.2 8.2 23.5 
20889 0 5 7.1 9.3 23.5 
22675 0 5 6 6 25.5 
23691 0 5 10.4 10.4 26.5 
26333 0 5 8.2 8.2 29.5 
166 0 5 6 15.9 0.5 
4668 0 5 6 13.7 5.5 
5592 0 5 7.1 12.6 6.5 
7488 0 5 10.4 13.7 8.5 
9227 0 5 8.2 14.8 10.5 
10190 0 5 10.4 11.5 11.5 
13752 0 5 9.3 12.6 15.5 
13694 0 5 7.1 14.8 15.5 
15551 0 5 9.3 11.5 17.5 
16489 0 5 10.4 12.6 18.5 
17330 0 5 8.2 11.5 19.5 
17351 0 5 9.3 11.5 19.5 
17354 0 5 9.3 14.8 19.5 
17326 0 5 8.2 15.9 19.5 
18290 0 5 10.4 11.5 20.5 
18289 0 5 10.4 12.6 20.5 
19070 0 5 6 11.5 21.5 
19069 0 5 6 12.6 21.5 
19991 0 5 7.1 11.5 22.5 
19966 0 5 6 15.9 22.5 
20869 0 5 6 12.6 23.5 
21889 0 5 10.4 12.6 24.5 
23689 0 5 10.4 12.6 26.5 
24590 0 5 10.4 11.5 27.5 
1158 0 5 9.3 19.2 1.5 
1122 0 5 8.2 20.3 1.5 
1121 0 5 8.2 21.4 1.5 
2956 0 5 9.3 17 3.5 
2985 0 5 10.4 17 3.5 
2961 0 5 9.3 22.5 3.5 
3885 0 5 10.4 17 4.5 
3824 0 5 8.2 18.1 4.5 
5596 0 5 7.1 17 6.5 
5656 0 5 9.3 17 6.5 
5659 0 5 9.3 20.3 6.5 
6461 0 5 6 21.4 7.5 
8324 0 5 8.2 18.1 9.5 
9257 0 5 9.3 18.1 10.5 
9261 0 5 9.3 22.5 10.5 
10124 0 5 8.2 18.1 11.5 
11083 0 5 10.4 19.2 12.5 
11060 0 5 9.3 21.4 12.5 
11957 0 5 9.3 18.1 13.5 
12881 0 5 10.4 21.4 14.5 
13700 0 5 7.1 21.4 15.5 
14563 0 5 6 19.2 16.5 
15559 0 5 9.3 20.3 17.5 
15500 0 5 7.1 21.4 17.5 
17262 0 5 6 20.3 19.5 
20056 0 5 9.3 17 22.5 
20061 0 5 9.3 22.5 22.5 
23620 0 5 8.2 22.5 26.5 
24581 0 5 10.4 21.4 27.5 
1119 0 5 8.2 23.6 1.5 
1959 0 5 6 23.6 2.5 
2065 0 5 9.3 26.9 2.5 
2977 0 5 10.4 25.8 3.5 
2916 0 5 8.2 26.9 3.5 
5665 0 5 9.3 26.9 6.5 
6562 0 5 9.3 23.6 7.5 
9265 0 5 9.3 26.9 10.5 
10119 0 5 8.2 23.6 11.5 
11858 0 5 6 24.7 13.5 
12816 0 5 8.2 26.9 14.5 
12815 0 5 8.2 28 14.5 
12866 0 5 9.3 28 14.5 
13765 0 5 9.3 26.9 15.5 
14679 0 5 10.4 23.6 16.5 
17316 0 5 8.2 26.9 19.5 
19956 0 5 6 26.9 22.5 
19955 0 5 6 28 22.5 
20964 0 5 9.3 25.8 23.5 
21818 0 5 8.2 24.7 24.5 
23678 0 5 10.4 24.7 26.5 
24506 0 5 7.1 28 27.5 
24566 0 5 9.3 28 27.5 
212 0 5 8.2 31.3 0.5 
2074 0 5 10.4 29.1 2.5 
2011 0 5 8.2 32.4 2.5 
2911 0 5 8.2 32.4 3.5 
4774 0 5 10.4 29.1 5.5 
4771 0 5 10.4 32.4 5.5 
6574 0 5 10.4 29.1 7.5 
7351 0 5 6 32.4 8.5 
10114 0 5 8.2 29.1 11.5 
10111 0 5 8.2 32.4 11.5 
11969 0 5 9.3 31.3 13.5 
11972 0 5 10.4 31.3 13.5 
12867 0 5 9.3 29.1 14.5 
13773 0 5 10.4 30.2 15.5 
15570 0 5 9.3 32.4 17.5 
20973 0 5 10.4 30.2 23.5 
20851 0 5 6 32.4 23.5 
21753 0 5 6 30.2 24.5 
21872 0 5 10.4 31.3 24.5 
24567 0 5 9.3 29.1 27.5 
25353 0 5 6 30.2 28.5 
25351 0 5 6 32.4 28.5 
25410 0 5 7.1 32.4 28.5 
365 0 5 13.7 4.9 0.5 
1324 0 5 15.9 3.8 1.5 
4016 0 5 14.8 4.9 4.5 
6661 0 5 13.7 0.5 7.5 
7501 0 5 11.5 0.5 8.5 
7622 0 5 15.9 1.6 8.5 
8464 0 5 13.7 3.8 9.5 
10201 0 5 11.5 0.5 11.5 
12903 0 5 11.5 2.7 14.5 
12958 0 5 12.6 2.7 14.5 
13859 0 5 12.6 1.6 15.5 
13924 0 5 15.9 3.8 15.5 
14759 0 5 12.6 1.6 16.5 
15659 0 5 12.6 1.6 17.5 
15718 0 5 14.8 2.7 17.5 
18361 0 5 13.7 0.5 20.5 
19265 0 5 13.7 4.9 21.5 
20161 0 5 13.7 0.5 22.5 
20216 0 5 14.8 4.9 22.5 
21060 0 5 12.6 0.5 23.5 
21122 0 5 15.9 1.6 23.5 
21057 0 5 12.6 3.8 23.5 
22802 0 5 11.5 1.6 25.5 
22922 0 5 15.9 1.6 25.5 
22924 0 5 15.9 3.8 25.5 
23702 0 5 11.5 1.6 26.5 
353 0 5 12.6 8.2 0.5 
2166 0 5 13.7 6 2.5 
2109 0 5 11.5 9.3 2.5 
3955 0 5 12.6 6 4.5 
3951 0 5 12.6 10.4 4.5 
4912 0 5 14.8 9.3 5.5 
9307 0 5 11.5 7.1 10.5 
10329 0 5 15.9 9.3 11.5 
12009 0 5 11.5 9.3 13.5 
12952 0 5 12.6 9.3 14.5 
15726 0 5 15.9 6 17.5 
15654 0 5 12.6 7.1 17.5 
15727 0 5 15.9 7.1 17.5 
15729 0 5 15.9 9.3 17.5 
16626 0 5 15.9 6 18.5 
16629 0 5 15.9 9.3 18.5 
17451 0 5 12.6 10.4 19.5 
18368 0 5 13.7 8.2 20.5 
21066 0 5 13.7 6 23.5 
21007 0 5 11.5 7.1 23.5 
21953 0 5 12.6 8.2 24.5 
21970 0 5 13.7 10.4 24.5 
22915 0 5 14.8 6 25.5 
22912 0 5 14.8 9.3 25.5 
24726 0 5 15.9 6 27.5 
26529 0 5 15.9 9.3 29.5 
409 0 5 14.8 12.6 0.5 
1272 0 5 13.7 12.6 1.5 
3110 0 5 14.8 11.5 3.5 
8533 0 5 15.9 13.7 9.5 
8475 0 5 13.7 15.9 9.5 
13932 0 5 15.9 12.6 15.5 
13908 0 5 14.8 13.7 15.5 
14749 0 5 12.6 12.6 16.5 
20235 0 5 15.9 15.9 22.5 
21973 0 5 13.7 13.7 24.5 
23806 0 5 14.8 15.9 26.5 
25571 0 5 13.7 11.5 28.5 
25548 0 5 12.6 13.7 28.5 
26535 0 5 15.9 15.9 29.5 
343 0 5 12.6 19.2 0.5 
2181 0 5 13.7 22.5 2.5 
4004 0 5 14.8 18.1 4.5 
3943 0 5 12.6 19.2 4.5 
3919 0 5 11.5 20.3 4.5 
4819 0 5 11.5 20.3 5.5 
7636 0 5 15.9 17 8.5 
7604 0 5 14.8 18.1 8.5 
8476 0 5 13.7 17 9.5 
8477 0 5 13.7 18.1 9.5 
8420 0 5 11.5 21.4 9.5 
9320 0 5 11.5 21.4 10.5 
10245 0 5 12.6 17 11.5 
10243 0 5 12.6 19.2 11.5 
10242 0 5 12.6 20.3 11.5 
10279 0 5 13.7 20.3 11.5 
11116 0 5 11.5 17 12.5 
11241 0 5 15.9 22.5 12.5 
12042 0 5 12.6 20.3 13.5 
12020 0 5 11.5 21.4 13.5 
13036 0 5 15.9 17 14.5 
12940 0 5 12.6 22.5 14.5 
14741 0 5 12.6 21.4 16.5 
15642 0 5 12.6 20.3 17.5 
16600 0 5 14.8 22.5 18.5 
19305 0 5 14.8 17 21.5 
19337 0 5 15.9 18.1 21.5 
19279 0 5 13.7 20.3 21.5 
20241 0 5 15.9 22.5 22.5 
21139 0 5 15.9 20.3 23.5 
21141 0 5 15.9 22.5 23.5 
22041 0 5 15.9 22.5 24.5 
22936 0 5 15.9 17 25.5 
22937 0 5 15.9 18.1 25.5 
22940 0 5 15.9 21.4 25.5 
24737 0 5 15.9 18.1 27.5 
24620 0 5 11.5 21.4 27.5 
2242 0 5 15.9 23.6 2.5 
2183 0 5 13.7 24.7 2.5 
6744 0 5 15.9 25.8 7.5 
7584 0 5 13.7 25.8 8.5 
8545 0 5 15.9 26.9 9.5 
9323 0 5 11.5 24.7 10.5 
9395 0 5 14.8 28 10.5 
10225 0 5 11.5 26.9 11.5 
10236 0 5 12.6 26.9 11.5 
11195 0 5 14.8 28 12.5 
12922 0 5 11.5 23.6 14.5 
12925 0 5 11.5 26.9 14.5 
14785 0 5 13.7 26.9 16.5 
14786 0 5 13.7 28 16.5 
15624 0 5 11.5 25.8 17.5 
15637 0 5 12.6 25.8 17.5 
15696 0 5 14.8 26.9 17.5 
15695 0 5 14.8 28 17.5 
17499 0 5 14.8 23.6 19.5 
17437 0 5 12.6 25.8 19.5 
20243 0 5 15.9 24.7 22.5 
21086 0 5 13.7 28 23.5 
22839 0 5 12.6 23.6 25.5 
22899 0 5 14.8 23.6 25.5 
22946 0 5 15.9 28 25.5 
23842 0 5 15.9 23.6 26.5 
24623 0 5 11.5 24.7 27.5 
25597 0 5 14.8 25.8 28.5 
26437 0 5 12.6 25.8 29.5 
26485 0 5 13.7 26.9 29.5 
330 0 5 11.5 32.4 0.5 
3093 0 5 14.8 30.2 3.5 
3927 0 5 11.5 29.1 4.5 
4948 0 5 15.9 30.2 5.5 
4829 0 5 11.5 31.3 5.5 
4892 0 5 14.8 31.3 5.5 
8427 0 5 11.5 29.1 9.5 
8434 0 5 12.6 29.1 9.5 
8491 0 5 14.8 32.4 9.5 
11247 0 5 15.9 29.1 12.5 
12087 0 5 13.7 29.1 13.5 
14730 0 5 11.5 32.4 16.5 
19234 0 5 12.6 29.1 21.5 
19292 0 5 14.8 31.3 21.5 
20249 0 5 15.9 31.3 22.5 
22050 0 5 15.9 32.4 24.5 
22947 0 5 15.9 29.1 25.5 
23789 0 5 13.7 31.3 26.5 
24627 0 5 11.5 29.1 27.5 
25591 0 5 14.8 32.4 28.5 
26434 0 5 12.6 29.1 29.5 
481 0 5 18.1 0.5 0.5 
1496 0 5 21.4 4.9 1.5 
2343 0 5 20.3 2.7 2.5 
3179 0 5 17 1.6 3.5 
4202 0 5 22.5 1.6 4.5 
5882 0 5 18.1 1.6 6.5 
7681 0 5 18.1 0.5 8.5 
7679 0 5 17 1.6 8.5 
7742 0 5 20.3 1.6 8.5 
7683 0 5 18.1 2.7 8.5 
11401 0 5 22.5 0.5 12.5 
12182 0 5 18.1 1.6 13.5 
13200 0 5 21.4 0.5 14.5 
13082 0 5 18.1 1.6 14.5 
13078 0 5 17 2.7 14.5 
13077 0 5 17 3.8 14.5 
13145 0 5 20.3 4.9 14.5 
13982 0 5 18.1 1.6 15.5 
13985 0 5 18.1 4.9 15.5 
14884 0 5 18.1 3.8 16.5 
16680 0 5 17 0.5 18.5 
16801 0 5 22.5 0.5 18.5 
16743 0 5 20.3 2.7 18.5 
17704 0 5 22.5 3.8 19.5 
19378 0 5 17 2.7 21.5 
21182 0 5 18.1 1.6 23.5 
23042 0 5 20.3 1.6 25.5 
25744 0 5 20.3 3.8 28.5 
26700 0 5 21.4 0.5 29.5 
535 0 5 19.2 6 0.5 
2287 0 5 18.1 7.1 2.5 
3174 0 5 17 7.1 3.5 
3187 0 5 18.1 7.1 3.5 
3172 0 5 17 9.3 3.5 
4135 0 5 19.2 6 4.5 
4147 0 5 20.3 7.1 4.5 
5946 0 5 20.3 6 6.5 
6834 0 5 19.2 7.1 7.5 
6849 0 5 20.3 9.3 7.5 
8634 0 5 19.2 7.1 9.5 
8573 0 5 17 8.2 9.5 
8590 0 5 18.1 10.4 9.5 
9535 0 5 19.2 6 10.5 
11392 0 5 21.4 9.3 12.5 
13088 0 5 18.1 8.2 14.5 
13149 0 5 20.3 9.3 14.5 
16746 0 5 20.3 6 18.5 
16671 0 5 17 10.4 18.5 
18533 0 5 19.2 8.2 20.5 
18489 0 5 18.1 9.3 20.5 
18531 0 5 19.2 10.4 20.5 
20286 0 5 18.1 6 22.5 
20394 0 5 21.4 7.1 22.5 
20410 0 5 22.5 10.4 22.5 
21291 0 5 21.4 10.4 23.5 
21310 0 5 22.5 10.4 23.5 
22135 0 5 19.2 6 24.5 
23109 0 5 22.5 9.3 25.5 
23995 0 5 21.4 6 26.5 
23933 0 5 19.2 8.2 26.5 
24910 0 5 22.5 10.4 27.5 
1515 0 5 22.5 15.9 1.5 
2292 0 5 18.1 12.6 2.5 
2327 0 5 19.2 14.8 2.5 
3191 0 5 18.1 11.5 3.5 
3194 0 5 18.1 14.8 3.5 
5112 0 5 22.5 12.6 5.5 
5115 0 5 22.5 15.9 5.5 
5955 0 5 20.3 15.9 6.5 
8714 0 5 22.5 14.8 9.5 
9612 0 5 22.5 12.6 10.5 
10428 0 5 19.2 13.7 11.5 
11294 0 5 18.1 14.8 12.5 
14051 0 5 20.3 11.5 15.5 
14114 0 5 22.5 14.8 15.5 
14026 0 5 19.2 15.9 15.5 
14086 0 5 21.4 15.9 15.5 
15014 0 5 22.5 14.8 16.5 
14926 0 5 19.2 15.9 16.5 
15854 0 5 20.3 14.8 17.5 
16729 0 5 19.2 12.6 18.5 
16753 0 5 20.3 13.7 18.5 
16786 0 5 21.4 15.9 18.5 
18470 0 5 17 11.5 20.5 
20351 0 5 20.3 11.5 22.5 
20388 0 5 21.4 13.7 22.5 
20354 0 5 20.3 14.8 22.5 
20266 0 5 17 15.9 22.5 
21251 0 5 20.3 11.5 23.5 
21192 0 5 18.1 12.6 23.5 
21288 0 5 21.4 13.7 23.5 
23030 0 5 19.2 11.5 25.5 
23927 0 5 19.2 14.8 26.5 
25788 0 5 21.4 13.7 28.5 
25787 0 5 21.4 14.8 28.5 
26594 0 5 18.1 14.8 29.5 
496 0 5 18.1 17 0.5 
618 0 5 22.5 19.2 0.5 
2385 0 5 21.4 17 2.5 
2298 0 5 18.1 19.2 2.5 
2418 0 5 22.5 19.2 2.5 
3196 0 5 18.1 17 3.5 
3224 0 5 19.2 18.1 3.5 
4099 0 5 18.1 20.3 4.5 
5897 0 5 18.1 18.1 6.5 
6822 0 5 19.2 20.3 7.5 
8625 0 5 19.2 17 9.5 
8564 0 5 17 18.1 9.5 
8624 0 5 19.2 18.1 9.5 
8719 0 5 22.5 20.3 9.5 
8600 0 5 18.1 21.4 9.5 
8620 0 5 19.2 22.5 9.5 
9520 0 5 19.2 22.5 10.5 
11417 0 5 22.5 18.1 12.5 
11359 0 5 20.3 20.3 12.5 
12281 0 5 21.4 21.4 13.5 
12201 0 5 18.1 22.5 13.5 
13965 0 5 17 17 15.5 
13964 0 5 17 18.1 15.5 
14863 0 5 17 19.2 16.5 
16665 0 5 17 17 18.5 
16698 0 5 18.1 19.2 18.5 
16820 0 5 22.5 21.4 18.5 
16720 0 5 19.2 22.5 18.5 
17721 0 5 22.5 22.5 19.5 
18618 0 5 22.5 19.2 20.5 
18462 0 5 17 20.3 20.5 
19485 0 5 21.4 17 21.5 
22217 0 5 22.5 18.1 24.5 
22158 0 5 20.3 19.2 24.5 
22183 0 5 21.4 19.2 24.5 
23084 0 5 21.4 18.1 25.5 
23922 0 5 19.2 20.3 26.5 
23921 0 5 19.2 21.4 26.5 
24882 0 5 21.4 20.3 27.5 
25782 0 5 21.4 20.3 28.5 
26600 0 5 18.1 21.4 29.5 
2425 0 5 22.5 26.9 2.5 
3158 0 5 17 24.7 3.5 
6757 0 5 17 25.8 7.5 
7763 0 5 20.3 24.7 8.5 
7826 0 5 22.5 28 8.5 
8559 0 5 17 23.6 9.5 
8603 0 5 18.1 24.7 9.5 
8617 0 5 19.2 25.8 9.5 
8615 0 5 19.2 28 9.5 
10464 0 5 20.3 25.8 11.5 
11378 0 5 21.4 24.7 12.5 
11366 0 5 20.3 28 12.5 
14963 0 5 20.3 24.7 16.5 
15877 0 5 21.4 25.8 17.5 
16716 0 5 19.2 26.9 18.5 
16776 0 5 21.4 26.9 18.5 
18623 0 5 22.5 24.7 20.5 
18566 0 5 20.3 28 20.5 
19462 0 5 20.3 23.6 21.5 
20379 0 5 21.4 23.6 22.5 
20255 0 5 17 28 22.5 
22224 0 5 22.5 25.8 24.5 
23002 0 5 18.1 23.6 25.5 
23016 0 5 19.2 26.9 25.5 
23015 0 5 19.2 28 25.5 
23965 0 5 20.3 26.9 26.5 
24026 0 5 22.5 28 26.5 
24817 0 5 19.2 25.8 27.5 
24755 0 5 17 28 27.5 
1530 0 5 22.5 32.4 1.5 
3272 0 5 21.4 31.3 3.5 
3211 0 5 19.2 32.4 3.5 
5070 0 5 20.3 32.4 5.5 
5854 0 5 17 29.1 6.5 
5908 0 5 18.1 30.2 6.5 
5909 0 5 18.1 31.3 6.5 
6030 0 5 22.5 32.4 6.5 
6752 0 5 17 31.3 7.5 
7827 0 5 22.5 29.1 8.5 
9454 0 5 17 29.1 10.5 
9507 0 5 18.1 29.1 10.5 
9514 0 5 19.2 29.1 10.5 
14127 0 5 22.5 29.1 15.5 
13951 0 5 17 32.4 15.5 
14968 0 5 20.3 30.2 16.5 
15030 0 5 22.5 32.4 16.5 
15871 0 5 21.4 32.4 17.5 
16711 0 5 19.2 32.4 18.5 
18453 0 5 17 30.2 20.5 
18568 0 5 20.3 30.2 20.5 
19408 0 5 18.1 30.2 21.5 
22054 0 5 17 29.1 24.5 
22167 0 5 20.3 29.1 24.5 
23007 0 5 18.1 29.1 25.5 
23009 0 5 18.1 31.3 25.5 
26673 0 5 21.4 30.2 29.5 
26670 0 5 20.3 32.4 29.5 
3424 0 5 26.9 3.8 3.5 
6180 0 5 28 0.5 6.5 
6117 0 5 25.8 3.8 6.5 
8757 0 5 23.6 3.8 9.5 
9776 0 5 28 4.9 10.5 
10677 0 5 28 3.8 11.5 
12362 0 5 24.7 1.6 13.5 
12419 0 5 25.8 1.6 13.5 
12418 0 5 25.8 2.7 13.5 
13261 0 5 24.7 0.5 14.5 
13325 0 5 26.9 4.9 14.5 
14161 0 5 24.7 0.5 15.5 
14220 0 5 25.8 0.5 15.5 
15118 0 5 25.8 2.7 16.5 
15963 0 5 24.7 2.7 17.5 
17756 0 5 23.6 4.9 19.5 
20461 0 5 24.7 0.5 22.5 
20579 0 5 28 1.6 22.5 
20457 0 5 23.6 3.8 22.5 
25019 0 5 25.8 1.6 27.5 
24956 0 5 23.6 4.9 27.5 
26878 0 5 28 2.7 29.5 
26816 0 5 25.8 4.9 29.5 
654 0 5 23.6 7.1 0.5 
714 0 5 25.8 7.1 0.5 
2573 0 5 28 8.2 2.5 
3429 0 5 26.9 9.3 3.5 
5227 0 5 26.9 7.1 5.5 
5274 0 5 28 7.1 5.5 
5168 0 5 24.7 8.2 5.5 
7029 0 5 26.9 9.3 7.5 
8875 0 5 28 6 9.5 
8753 0 5 23.6 8.2 9.5 
8828 0 5 26.9 8.2 9.5 
9726 0 5 26.9 6 10.5 
9727 0 5 26.9 7.1 10.5 
9728 0 5 26.9 8.2 10.5 
11468 0 5 24.7 8.2 12.5 
11512 0 5 25.8 9.3 12.5 
12366 0 5 24.7 6 13.5 
12411 0 5 25.8 10.4 13.5 
13329 0 5 26.9 9.3 14.5 
15953 0 5 23.6 8.2 17.5 
15969 0 5 24.7 9.3 17.5 
15951 0 5 23.6 10.4 17.5 
19613 0 5 25.8 8.2 21.5 
20455 0 5 23.6 6 22.5 
23166 0 5 24.7 6 25.5 
25013 0 5 25.8 8.2 27.5 
25914 0 5 25.8 7.1 28.5 
25852 0 5 23.6 9.3 28.5 
26829 0 5 26.9 9.3 29.5 
26751 0 5 23.6 10.4 29.5 
26871 0 5 28 10.4 29.5 
4273 0 5 24.7 13.7 4.5 
4366 0 5 28 15.9 4.5 
5173 0 5 24.7 13.7 5.5 
6972 0 5 24.7 12.6 7.5 
8834 0 5 26.9 14.8 9.5 
14171 0 5 24.7 11.5 15.5 
14231 0 5 26.9 11.5 15.5 
15949 0 5 23.6 12.6 17.5 
17749 0 5 23.6 12.6 19.5 
17747 0 5 23.6 14.8 19.5 
17746 0 5 23.6 15.9 19.5 
21432 0 5 26.9 12.6 23.5 
21373 0 5 24.7 13.7 23.5 
21408 0 5 25.8 13.7 23.5 
21374 0 5 24.7 14.8 23.5 
21407 0 5 25.8 14.8 23.5 
22370 0 5 28 11.5 24.5 
22274 0 5 24.7 14.8 24.5 
22334 0 5 26.9 14.8 24.5 
23175 0 5 24.7 15.9 25.5 
24131 0 5 26.9 11.5 26.5 
24971 0 5 24.7 11.5 27.5 
1578 0 5 24.7 19.2 1.5 
1579 0 5 24.7 20.3 1.5 
1600 0 5 25.8 22.5 1.5 
4305 0 5 25.8 17 4.5 
5265 0 5 28 17 5.5 
5239 0 5 26.9 20.3 5.5 
5240 0 5 26.9 21.4 5.5 
7845 0 5 23.6 17 8.5 
7901 0 5 25.8 21.4 8.5 
8805 0 5 25.8 17 9.5 
8779 0 5 24.7 20.3 9.5 
9760 0 5 28 22.5 10.5 
11479 0 5 24.7 20.3 12.5 
12440 0 5 26.9 21.4 13.5 
13277 0 5 24.7 18.1 14.5 
14239 0 5 26.9 20.3 15.5 
14262 0 5 28 20.3 15.5 
14141 0 5 23.6 21.4 15.5 
15103 0 5 25.8 19.2 16.5 
16845 0 5 23.6 17 18.5 
16961 0 5 28 21.4 18.5 
17860 0 5 28 22.5 19.5 
18703 0 5 25.8 19.2 20.5 
18681 0 5 24.7 22.5 20.5 
20444 0 5 23.6 18.1 22.5 
21461 0 5 28 21.4 23.5 
25960 0 5 28 22.5 28.5 
26836 0 5 26.9 17 29.5 
26839 0 5 26.9 20.3 29.5 
1582 0 5 24.7 23.6 1.5 
1583 0 5 24.7 24.7 1.5 
1645 0 5 26.9 26.9 1.5 
4284 0 5 24.7 25.8 4.5 
5258 0 5 28 24.7 5.5 
6036 0 5 23.6 26.9 6.5 
6986 0 5 24.7 28 7.5 
9699 0 5 25.8 23.6 10.5 
9698 0 5 25.8 24.7 10.5 
9636 0 5 23.6 26.9 10.5 
9686 0 5 24.7 28 10.5 
12337 0 5 23.6 25.8 13.5 
13284 0 5 24.7 25.8 14.5 
14242 0 5 26.9 23.6 15.5 
14259 0 5 28 23.6 15.5 
14244 0 5 26.9 25.8 15.5 
15099 0 5 25.8 23.6 16.5 
15098 0 5 25.8 24.7 16.5 
15145 0 5 26.9 26.9 16.5 
16838 0 5 23.6 24.7 18.5 
16837 0 5 23.6 25.8 18.5 
18697 0 5 25.8 25.8 20.5 
20495 0 5 25.8 28 22.5 
22237 0 5 23.6 25.8 24.5 
23182 0 5 24.7 23.6 25.5 
23245 0 5 26.9 26.9 25.5 
24085 0 5 24.7 26.9 26.5 
24095 0 5 25.8 28 26.5 
24985 0 5 24.7 26.9 27.5 
25838 0 5 23.6 24.7 28.5 
1532 0 5 23.6 31.3 1.5 
4347 0 5 26.9 29.1 4.5 
4288 0 5 24.7 30.2 4.5 
4348 0 5 26.9 30.2 4.5 
6932 0 5 23.6 31.3 7.5 
8790 0 5 24.7 32.4 9.5 
11432 0 5 23.6 31.3 12.5 
12447 0 5 26.9 29.1 13.5 
12391 0 5 25.8 32.4 13.5 
13289 0 5 24.7 31.3 14.5 
14131 0 5 23.6 32.4 15.5 
15088 0 5 24.7 30.2 16.5 
15934 0 5 23.6 29.1 17.5 
15992 0 5 25.8 31.3 17.5 
16948 0 5 26.9 30.2 18.5 
16890 0 5 24.7 32.4 18.5 
17851 0 5 28 32.4 19.5 
20494 0 5 25.8 29.1 22.5 
20493 0 5 25.8 30.2 22.5 
22232 0 5 23.6 31.3 24.5 
23253 0 5 28 30.2 25.5 
25050 0 5 26.9 32.4 27.5 
25887 0 5 24.7 29.1 28.5 
898 0 5 32.4 2.7 0.5 
897 0 5 32.4 3.8 0.5 
1799 0 5 32.4 1.6 1.5 
3598 0 5 32.4 2.7 3.5 
4444 0 5 31.3 3.8 4.5 
4497 0 5 32.4 3.8 4.5 
6241 0 5 31.3 0.5 6.5 
6236 0 5 30.2 4.9 6.5 
7144 0 5 31.3 3.8 7.5 
8939 0 5 30.2 1.6 9.5 
8884 0 5 29.1 3.8 9.5 
10743 0 5 31.3 2.7 11.5 
11697 0 5 32.4 3.8 12.5 
12539 0 5 30.2 1.6 13.5 
14337 0 5 30.2 3.8 15.5 
15299 0 5 32.4 1.6 16.5 
15297 0 5 32.4 3.8 16.5 
16138 0 5 30.2 2.7 17.5 
16143 0 5 31.3 2.7 17.5 
17100 0 5 32.4 0.5 18.5 
21597 0 5 32.4 3.8 23.5 
22497 0 5 32.4 3.8 24.5 
23343 0 5 31.3 2.7 25.5 
26099 0 5 32.4 1.6 28.5 
2648 0 5 31.3 8.2 2.5 
4495 0 5 32.4 6 4.5 
8934 0 5 30.2 7.1 9.5 
8932 0 5 30.2 9.3 9.5 
9831 0 5 30.2 10.4 10.5 
10734 0 5 30.2 7.1 11.5 
13448 0 5 31.3 8.2 14.5 
14334 0 5 30.2 7.1 15.5 
17093 0 5 32.4 8.2 18.5 
17992 0 5 32.4 9.3 19.5 
20587 0 5 29.1 7.1 22.5 
20693 0 5 32.4 8.2 22.5 
21595 0 5 32.4 6 23.5 
22447 0 5 31.3 7.1 24.5 
22450 0 5 31.3 10.4 24.5 
23395 0 5 32.4 6 25.5 
24247 0 5 31.3 7.1 26.5 
26035 0 5 30.2 6 28.5 
26994 0 5 32.4 7.1 29.5 
830 0 5 30.2 11.5 0.5 
886 0 5 32.4 15.9 0.5 
1730 0 5 30.2 11.5 1.5 
1786 0 5 32.4 15.9 1.5 
2630 0 5 30.2 11.5 2.5 
3529 0 5 30.2 12.6 3.5 
4455 0 5 31.3 15.9 4.5 
5352 0 5 31.3 12.6 5.5 
6290 0 5 32.4 11.5 6.5 
6288 0 5 32.4 13.7 6.5 
7152 0 5 31.3 12.6 7.5 
10695 0 5 29.1 15.9 11.5 
11688 0 5 32.4 13.7 12.5 
11626 0 5 30.2 15.9 12.5 
12590 0 5 32.4 11.5 13.5 
13452 0 5 31.3 12.6 14.5 
13454 0 5 31.3 14.8 14.5 
13455 0 5 31.3 15.9 14.5 
14389 0 5 32.4 12.6 15.5 
15229 0 5 30.2 12.6 16.5 
15228 0 5 30.2 13.7 16.5 
16130 0 5 30.2 11.5 17.5 
16127 0 5 30.2 14.8 17.5 
22452 0 5 31.3 12.6 24.5 
25152 0 5 31.3 12.6 27.5 
25127 0 5 30.2 14.8 27.5 
26893 0 5 29.1 13.7 29.5 
1785 0 5 32.4 17 1.5 
1701 0 5 29.1 22.5 1.5 
2599 0 5 29.1 20.3 2.5 
3561 0 5 31.3 22.5 3.5 
4420 0 5 30.2 22.5 4.5 
6221 0 5 30.2 21.4 6.5 
8924 0 5 30.2 18.1 9.5 
9823 0 5 30.2 19.2 10.5 
10725 0 5 30.2 17 11.5 
11661 0 5 31.3 22.5 12.5 
11680 0 5 32.4 22.5 12.5 
13398 0 5 29.1 19.2 14.5 
13399 0 5 29.1 20.3 14.5 
17025 0 5 30.2 17 18.5 
17020 0 5 30.2 22.5 18.5 
20598 0 5 29.1 19.2 22.5 
20680 0 5 32.4 22.5 22.5 
26985 0 5 32.4 17 29.5 
26900 0 5 29.1 21.4 29.5 
26981 0 5 32.4 21.4 29.5 
806 0 5 29.1 28 0.5 
1763 0 5 31.3 24.7 1.5 
2619 0 5 30.2 23.6 2.5 
2678 0 5 32.4 24.7 2.5 
6263 0 5 31.3 24.7 6.5 
6264 0 5 31.3 25.8 6.5 
7163 0 5 31.3 24.7 7.5 
9878 0 5 32.4 24.7 10.5 
12562 0 5 31.3 23.6 13.5 
12576 0 5 32.4 26.9 13.5 
14379 0 5 32.4 23.6 15.5 
15219 0 5 30.2 23.6 16.5 
15276 0 5 32.4 26.9 16.5 
17006 0 5 29.1 28 18.5 
17918 0 5 30.2 24.7 19.5 
17917 0 5 30.2 25.8 19.5 
20663 0 5 31.3 24.7 22.5 
20605 0 5 29.1 26.9 22.5 
20606 0 5 29.1 28 22.5 
20675 0 5 32.4 28 22.5 
22402 0 5 29.1 23.6 24.5 
22463 0 5 31.3 24.7 24.5 
22477 0 5 32.4 25.8 24.5 
25119 0 5 30.2 23.6 27.5 
874 0 5 32.4 29.1 0.5 
1770 0 5 31.3 32.4 1.5 
4474 0 5 32.4 29.1 4.5 
7170 0 5 31.3 32.4 7.5 
8914 0 5 30.2 29.1 9.5 
8912 0 5 30.2 31.3 9.5 
12513 0 5 30.2 30.2 13.5 
12571 0 5 32.4 32.4 13.5 
15274 0 5 32.4 29.1 16.5 
21509 0 5 29.1 31.3 23.5 
21571 0 5 32.4 32.4 23.5 
24273 0 5 32.4 30.2 26.5 
24272 0 5 32.4 31.3 26.5 
26072 0 5 32.4 31.3 28.5 
ITEM: TIMESTEP
100000
ITEM: NUMBER OF ATOMS
950
ITEM: BOX BOUNDS pp pp pp
0.0000000000000000e+00 3.3789999999999999e+01
0.0000000000000000e+00 3.3789999999999999e+01
0.0000000000000000e+00 3.3789999999999999e+01
ITEM: ATOMS id mol type x y z 
3429 0 5 2.05161 2.95655 1.02498 
5470 0 5 2.67879 1.89076 1.69498 
6413 0 5 4.41962 2.93794 3.12142 
10111 0 5 2.70732 3.43236 5.09473 
8934 0 5 4.41714 4.35623 6.56952 
7318 0 5 0.683052 1.17826 7.32236 
4736 0 5 4.34102 2.17929 7.14255 
7144 0 5 3.83128 3.25897 6.97729 
9150 0 5 2.83828 4.65042 8.01711 
9726 0 5 1.21835 1.6925 9.66112 
8939 0 5 1.61931 1.12839 10.5147 
11247 0 5 4.35053 1.31698 10.0686 
9878 0 5 2.72143 3.2995 9.82298 
8222 0 5 3.10796 2.90096 10.9057 
6290 0 5 4.69581 5.03362 5.70474 
4530 0 5 1.86748 0.0573192 5.78741 
8227 0 5 3.1045 2.53382 12.0917 
16432 0 5 5.08539 2.99936 16.5479 
12816 0 5 3.04588 1.71175 16.4269 
12571 0 5 3.13369 4.68754 11.6039 
14431 0 5 5.25549 4.95116 17.8147 
15448 0 5 0.982789 2.34156 19.9349 
11732 0 5 1.50326 2.80313 18.8388 
20579 0 5 2.40038 5.58392 19.3542 
17992 0 5 3.12209 0.410136 22.2241 
18361 0 5 5.391 1.65663 22.2248 
21086 0 5 4.41327 4.55241 22.1492 
19842 0 5 1.06692 2.83138 23.0976 
22675 0 5 3.39743 5.30098 22.7097 
19978 0 5 2.8342 1.37649 23.8435 
117 0 5 4.17106 4.43932 24.7231 
22447 0 5 2.49955 3.83886 26.4249 
26035 0 5 0.379166 3.39446 28.0427 
26135 0 5 5.02539 0.00595118 33.5632 
897 0 5 1.41563 4.10778 29.4643 
25353 0 5 2.1355 3.57441 31.5202 
714 0 5 2.44643 0.603224 32.1247 
3605 0 5 1.93339 2.15514 33.3486 
4444 0 5 4.9788 1.3009 33.618 
22477 0 5 0.208282 0.802557 29.8548 
4668 0 5 5.20038 8.94001 4.08985 
3617 0 5 3.11145 8.67455 4.05947 
4348 0 5 2.27284 6.76059 4.91162 
12590 0 5 2.09379 9.91147 9.61475 
14749 0 5 5.07622 11.1085 13.6656 
11872 0 5 0.778903 7.39388 14.7209 
13448 0 5 0.38217 6.37592 18.3242 
15426 0 5 1.18084 7.35372 18.1152 
19863 0 5 4.46599 9.15234 20.4785 
13558 0 5 0.932649 8.76699 21.5671 
17093 0 5 0.502973 9.86281 23.146 
22334 0 5 4.26692 9.87859 23.5967 
21595 0 5 4.05845 9.07175 24.3912 
22802 0 5 5.06292 7.44844 25.9857 
166 0 5 4.309 9.58121 25.5254 
26878 0 5 2.76262 10.8972 26.3491 
16323 0 5 5.02474 5.97643 27.722 
18054 0 5 5.5955 8.11099 23.4285 
25410 0 5 5.31476 9.98004 28.457 
4626 0 5 2.81415 6.17918 29.601 
56 0 5 4.75145 10.5008 30.6066 
18124 0 5 0.785348 7.44459 32.8263 
2753 0 5 1.53378 8.52394 32.1774 
21663 0 5 2.69424 9.16049 32.231 
24426 0 5 1.44345 7.74852 28.1671 
26102 0 5 3.1865 12.4081 0.849444 
5449 0 5 1.52247 12.9642 1.68028 
7152 0 5 3.18296 14.1408 2.08912 
80 0 5 3.64877 16.3138 1.87452 
2599 0 5 0.349044 12.2636 4.3334 
10146 0 5 3.11559 11.2626 1.29884 
3561 0 5 2.69261 16.4509 8.55479 
2985 0 5 3.83732 16.3972 6.53925 
13551 0 5 3.42893 12.6051 14.6965 
14448 0 5 0.7319 12.1018 15.6693 
13700 0 5 5.15953 16.0664 16.6911 
16371 0 5 5.25036 14.1188 16.5123 
15376 0 5 1.22774 11.466 17.4609 
14444 0 5 0.373125 14.2632 17.8705 
16270 0 5 5.27981 14.2504 17.8822 
14637 0 5 3.48489 13.7327 18.1184 
15312 0 5 2.89894 14.8008 18.1843 
17349 0 5 4.78527 11.5989 19.8297 
19936 0 5 2.17756 16.7325 22.4213 
20889 0 5 4.37303 15.0648 21.2385 
16372 0 5 3.12072 15.0918 21.3879 
15437 0 5 2.28459 12.6882 16.9153 
21889 0 5 2.37788 12.8643 24.128 
20935 0 5 3.76451 13.8427 25.5476 
22452 0 5 5.2188 13.7145 25.5402 
20869 0 5 2.80068 15.7854 25.5125 
22511 0 5 5.53324 15.5419 27.8487 
22549 0 5 4.92337 16.2745 26.7599 
24307 0 5 5.49306 15.0698 33.2367 
3919 0 5 2.95303 19.8248 1.34056 
5352 0 5 4.89326 17.9022 3.05394 
2181 0 5 3.71264 19.1948 4.30964 
9077 0 5 4.69369 19.7059 4.14785 
26900 0 5 5.1638 18.0408 1.77695 
25220 0 5 4.64872 17.0301 0.0397479 
26985 0 5 2.7962 17.1188 6.47732 
11661 0 5 2.62379 19.2762 11.0597 
7245 0 5 1.52767 21.383 7.18887 
11688 0 5 3.01777 18.3368 7.58747 
4514 0 5 2.05656 18.4673 8.4357 
8202 0 5 0.966028 20.7246 10.317 
3824 0 5 2.63004 18.2034 9.54336 
16127 0 5 0.726142 19.5144 12.0196 
9142 0 5 5.36347 18.4452 12.9476 
11807 0 5 2.47278 22.1775 12.029 
15500 0 5 0.733426 19.0453 15.9288 
14379 0 5 3.05154 19.8045 16.5361 
18908 0 5 3.28654 17.3796 22.4416 
19004 0 5 4.76551 21.042 19.6282 
15346 0 5 3.049 18.6804 16.9726 
14416 0 5 2.64047 17.1446 20.1981 
18697 0 5 0.374303 21.2025 23.3005 
24581 0 5 1.37153 17.8499 30.3563 
25282 0 5 3.39796 21.6309 30.2623 
2619 0 5 0.308193 22.1095 31.5243 
1121 0 5 2.33443 21.0621 32.3639 
1959 0 5 2.09962 22.5992 2.02367 
2065 0 5 5.0292 25.4381 7.11405 
8204 0 5 0.810007 24.0468 7.83373 
11738 0 5 0.868942 23.5476 8.993 
14497 0 5 3.07251 24.8849 8.79886 
15276 0 5 1.93105 25.5074 8.55659 
14563 0 5 1.9519 24.9292 11.879 
18080 0 5 3.23845 23.3829 15.1606 
9921 0 5 4.22668 27.5723 14.4175 
11680 0 5 0.701543 26.7733 15.8084 
7350 0 5 5.00355 26.8543 15.0906 
17198 0 5 3.14817 24.8418 16.8529 
12748 0 5 3.88347 24.8087 17.9105 
15402 0 5 2.71053 22.9781 20.8666 
16286 0 5 0.477031 24.5564 21.119 
21645 0 5 2.36009 24.1909 20.4142 
14478 0 5 2.79801 25.0977 21.2878 
37 0 5 1.2572 23.6239 27.5803 
1891 0 5 1.68523 27.729 33.653 
6263 0 5 0.622776 31.7767 2.50593 
9064 0 5 2.04716 33.2917 2.22139 
6236 0 5 2.56703 31.408 3.35273 
2755 0 5 0.961689 32.5602 3.65202 
7241 0 5 5.24086 31.7653 8.11527 
4548 0 5 3.89903 29.2647 9.19078 
6241 0 5 2.30884 30.8151 10.6285 
15274 0 5 2.76227 29.2602 13.5821 
12925 0 5 1.82101 32.086 14.6089 
10677 0 5 0.62323 32.3486 14.8443 
15388 0 5 3.42228 31.2707 16.3782 
14424 0 5 2.45977 28.1711 13.0451 
19955 0 5 3.23396 33.7445 20.2103 
13646 0 5 5.13728 28.5625 18.0901 
18994 0 5 0.234953 29.7974 18.2875 
15395 0 5 1.97111 30.0456 20.5607 
18021 0 5 3.29388 29.2261 22.097 
21122 0 5 5.38216 33.5901 22.842 
1830 0 5 2.00389 29.3438 26.1796 
22506 0 5 1.71401 32.1333 26.1558 
18906 0 5 5.27019 33.0401 26.7799 
24273 0 5 1.39314 28.635 27.3733 
20751 0 5 2.32411 33.7194 23.8795 
14337 0 5 2.53614 30.3424 28.458 
1000 0 5 3.75131 29.5904 30.1583 
20675 0 5 0.59876 29.142 30.4795 
24362 0 5 2.83477 29.1748 32.36 
4535 0 5 3.33675 32.2891 33.181 
365 0 5 10.0664 1.06008 0.680846 
1048 0 5 10.9242 5.14814 0.649187 
212 0 5 11.1181 3.48727 1.99581 
236 0 5 9.30102 4.08915 1.36208 
6537 0 5 10.0094 0.53208 3.03549 
4649 0 5 10.9198 1.04675 3.77387 
9116 0 5 10.7615 1.67063 7.86331 
8336 0 5 6.65257 3.70133 8.74635 
11097 0 5 7.57245 0.796912 10.0532 
7351 0 5 8.81541 2.23176 10.6956 
13859 0 5 6.21909 3.02115 12.2086 
12899 0 5 6.87076 2.29065 13.8735 
15695 0 5 10.5872 2.23525 14.786 
13145 0 5 8.47869 3.99903 15.4019 
11972 0 5 10.1598 4.25318 18.3122 
20161 0 5 10.6816 1.24041 19.1474 
13078 0 5 9.91784 2.19174 18.4049 
20038 0 5 5.7271 0.33674 19.7637 
15718 0 5 10.4368 0.457531 20.163 