9000
Atoms. Timestep: 3550000
O 3.137120 4.303320 5.317180
O 3.864440 4.524980 5.886060
O 1.547780 4.015080 3.803940
O 1.795860 4.686590 3.127770
O 2.747140 5.585770 3.072860
O 2.678110 4.683200 2.790210
O 3.186130 3.922580 4.373370
O 3.899520 4.525630 4.224200
O 3.618890 5.636520 3.448710
O 2.395790 3.550870 4.028200
O 3.159120 4.966100 4.689970
O 2.716640 5.804860 6.537790
O 3.147560 4.825450 6.475810
O 1.144850 5.242920 7.098840
O 2.044720 5.193540 6.703120
O 1.031570 5.858580 7.838740
O 3.234320 6.481790 3.418420
O 3.451610 6.982030 4.234230
O 3.457030 7.413380 5.365060
O 3.427820 7.908460 4.496420
O 0.960084 9.507420 6.463120
O 0.979263 6.614560 7.170630
O 0.523815 8.377100 6.362450
O 1.324680 10.374700 6.572520
O 1.181250 7.695830 6.703560
O 2.110060 9.771970 6.845120
O 2.988850 9.923100 7.167390
O 2.518050 9.812100 7.981620
O 1.112290 8.713940 6.989560
O 1.415270 7.348160 7.543400
N 5.722420 0.723217 1.339550
N 5.336740 2.230200 1.939800
N 5.829340 1.413930 1.980960
N 2.426610 0.527275 0.986798
N 4.985890 0.528707 3.919730
N 2.633020 0.552498 16.300800
N 2.522840 1.538260 16.241900
N 3.341500 3.533890 15.218600
N 1.615870 5.206310 14.165700
N 2.176190 4.914300 14.853100
N 2.803570 4.335730 15.250200
N 0.516546 1.519590 16.741300
N 5.637320 0.911484 15.502200
N 5.771920 1.229630 16.446800
N 2.250140 2.588090 16.190200
N 2.502140 3.348340 15.701800
N 3.465500 0.992678 16.372500
N 2.783330 2.200990 16.891500
N 1.333680 1.434420 19.386200
N 5.818780 1.909580 18.377600
N 0.912190 0.644010 20.382100
N 3.163540 0.969556 18.329700
N 5.762110 1.213480 17.638600
N 3.000750 2.383740 22.343400
N 4.703790 1.645560 22.171200
N 2.518020 1.384270 19.379000
N 1.990560 2.101600 19.803000
N 3.848380 0.852384 19.641000
N 3.371760 1.657600 19.760000
N 3.975260 1.853990 20.572400
N 5.196050 1.256490 18.690600
N 5.511640 1.738780 19.358300
N 5.354100 0.898799 19.775000
N 4.531940 0.860033 20.265800
N 2.095450 0.583140 22.159100
N 2.595000 2.514030 20.558900
N 2.314850 3.581810 21.031100
N 4.459870 2.623620 20.419100
N 0.958054 0.571109 19.417700
N 5.756130 2.999100 20.793400
N 2.347990 4.353830 20.370100
N 2.754870 5.181690 20.110600
N 1.928340 2.239630 21.228500
N 2.203490 1.389370 21.563400
N 4.020080 0.607363 18.122100
N 4.171320 0.622477 21.827800
N 4.377000 1.365080 21.285100
N 3.931470 2.385830 21.533100
N 1.630030 5.167870 21.685800
N 3.811170 3.300850 21.643600
N 3.221830 3.816350 21.018200
N 3.068330 2.738300 21.358800
N 3.000410 0.573546 20.057200
N 5.861150 3.600790 21.548500
N 4.212190 0.791703 17.015300
N 2.111570 5.810190 20.576300
N 1.612040 0.703158 21.199300
N 1.954550 4.733420 22.462600
N 3.044840 1.540640 23.297300
N 4.058230 1.812890 23.003000
N 4.359980 2.524280 22.477900
N 2.403270 0.825398 23.930400
N 2.775300 0.644746 22.978400
N 5.846900 2.766570 25.199200
N 5.507570 0.775562 23.457800
N 4.891210 0.813152 22.677900
N 3.508300 2.558860 23.221700
N 5.413600 4.328530 24.212300
N 2.556420 2.612360 23.154300
N 0.890585 3.617150 22.469400
N 1.444770 0.723582 24.195200
N 0.749364 1.948710 23.425100
N 3.351630 0.752137 23.824900
N 4.696000 3.471420 25.822100
N 4.662490 4.208650 25.200100
N 5.585520 4.574030 25.139800
N 5.887240 1.445350 23.939100
N 0.632139 0.944111 23.740500
N 1.619280 4.036350 23.025600
N 4.977010 3.467480 26.732000
N 5.125350 1.038150 26.387800
N 4.383150 0.604331 23.780900
N 5.429820 3.560300 24.819900
N 2.630640 1.483770 22.472600
N 2.586310 1.185350 31.970100
N 3.774930 11.281600 9.766180
N 5.778630 10.781700 9.333950
N 3.481900 10.501900 10.234400
N 3.806660 11.105000 10.873900
N 5.897940 11.178900 10.184400
N 3.857900 8.814280 12.907400
N 3.727790 7.928420 13.173100
N 3.855980 9.327840 12.064900
N 5.333010 10.936700 14.266300
N 3.315130 10.857500 11.636000
N 3.537040 10.750200 12.555800
N 3.151260 9.649430 12.744600
N 5.588160 9.386400 14.476200
N 3.953650 8.520030 13.914800
N 3.101220 9.074470 15.201400
N 4.113660 8.403800 14.902300
N 2.802400 9.967190 14.921900
N 3.616420 10.216100 13.396000
N 5.397050 10.959100 13.299600
N 3.113890 10.743600 14.373000
N 4.851780 10.554100 16.421000
N 3.235440 8.134240 15.075400
N 3.741150 11.189900 14.905000
N 3.842160 9.940640 16.352900
N 4.706490 9.771910 15.939100
N 4.271810 10.886000 15.630600
N 4.905200 10.528800 14.965200
N 5.634520 9.652560 15.384200
N 5.630560 10.800700 19.052900
N 5.139410 9.492310 17.216800
N 5.576090 11.189700 17.969700
N 4.125840 10.371700 17.211600
N 4.992890 10.326500 17.633000
N 5.343630 11.230300 16.997200
N 2.137590 5.952520 21.515900
N 5.539870 10.043200 18.533300
N 4.666290 11.162900 18.216000
N 5.339340 11.948200 10.092400
N 5.378510 12.096100 9.171540
N 4.475350 11.883100 9.398870
N 5.896670 13.128800 16.032600
N 5.027790 11.597700 15.972800
N 5.649290 11.957600 14.023400
N 5.084300 14.695700 16.611100
N 5.338930 15.659200 13.251400
N 3.468080 15.483400 16.455400
N 4.604570 12.343900 16.447900
N 5.068870 12.315300 13.350700
N 5.728250 13.042800 14.195500
N 2.788740 15.095100 14.295900
N 3.607330 15.486900 14.006600
N 4.586520 15.551000 13.803900
N 3.968460 15.501100 13.051800
N 4.137290 14.896300 16.844800
N 5.562220 12.247400 16.539400
N 3.091880 13.102900 15.637600
N 3.523290 13.727500 14.988800
N 4.756490 11.728800 15.055800
N 4.998210 12.561700 14.651100
N 5.248970 12.534400 15.686700
N 3.427840 14.953400 14.990400
N 3.509010 14.459900 15.822400
N 2.266850 13.599000 15.626300
N 2.584770 14.476500 16.058200
N 5.546230 13.302700 15.073300
N 5.323860 15.547900 18.467800
N 2.124910 16.477400 17.250400
N 5.818020 16.165300 17.772700
N 5.582670 14.644200 18.603600
N 5.499550 15.520100 17.107200
N 2.794470 15.844600 16.986300
N 4.795370 11.814900 17.471500
N 5.905020 12.203200 17.606300
N 5.188980 11.594700 19.018900
N 3.980850 22.080700 5.711000
N 2.595970 19.020400 5.602700
N 5.878760 22.038100 1.596930
N 4.229370 22.182700 4.672860
N 4.749670 22.011800 3.372850
N 1.924920 21.666800 5.676030
N 5.088470 21.543900 1.550970
N 4.301510 19.030000 3.324060
N 4.963020 17.561100 3.446760
N 2.878410 19.388700 3.633460
N 5.676640 19.877300 3.430730
N 4.891540 19.653400 2.927520
N 3.467160 22.121900 3.530340
N 5.238240 18.411800 3.811890
N 5.792150 21.662400 5.190710
N 5.254750 21.131900 3.579460
N 2.477120 22.206700 4.938740
N 3.268350 18.646100 5.075490
N 4.062150 18.834100 4.635180
N 4.267620 17.995200 5.197940
N 4.992180 18.484500 4.863730
N 2.419190 19.079000 4.462650
N 1.934940 19.607300 3.662160
N 1.892000 19.766100 5.380080
N 1.925130 20.150300 4.467850
N 5.151620 21.901600 4.498120
N 2.857870 19.892000 4.681350
N 3.652500 19.708100 4.251280
N 4.674880 19.389300 4.131870
N 4.189300 20.400700 4.680390
N 5.688470 19.114100 4.311960
N 5.271160 20.173000 4.216570
N 5.591630 18.996700 5.386210
N 1.829140 21.396000 4.527840
N 3.376320 21.888400 4.457980
N 3.385000 20.721800 4.919350
N 3.072030 21.601500 5.447640
N 3.137070 20.428200 3.721550
N 4.080270 21.296700 5.199060
N 2.691810 21.074600 4.174740
N 2.368040 20.976400 5.199850
N 4.452220 21.371500 4.151900
N 4.153330 18.829500 5.697090
N 5.009140 20.888400 4.808830
N 4.853930 21.876200 5.497330
N 5.748010 21.122700 7.039370
N 0.897842 17.566300 8.482900
N 0.933448 21.768800 10.941900
N 4.282300 18.528200 6.606650
N 1.565750 20.574900 6.906330
N 0.879444 20.163300 7.427270
N 1.964660 19.924400 6.308240
N 2.733710 19.112200 7.227140
N 2.347550 20.026500 7.240490
N 3.166880 20.081900 6.692320
N 3.083740 19.644800 7.925050
N 3.970380 20.669700 6.999200
N 3.276470 19.190000 6.232790
N 5.733630 19.357800 6.848790
N 3.767720 19.708700 10.925100
N 4.807420 19.179100 7.097450
N 4.156950 19.639400 6.316470
N 4.028130 21.263500 10.781100
N 4.869280 20.301500 6.702630
N 5.052430 19.415500 6.195830
N 2.111450 20.954200 7.679780
N 1.448690 21.504500 6.506430
N 2.898270 19.737500 10.537700
N 3.027840 20.850100 7.189930
N 1.465220 21.862000 10.128500
N 4.669140 21.195100 7.252290
N 5.449610 21.934300 7.515120
N 1.817340 18.604100 9.460350
N 1.063350 18.918100 8.983160
N 2.095330 20.249700 10.469500
N 4.618190 19.292300 9.045030
N 5.619070 19.250400 9.393190
N 1.234020 20.014600 9.023690
N 3.908220 19.763300 7.410790
N 4.020440 20.482400 8.063490
N 5.173370 20.368600 7.602900
N 4.888730 19.635500 8.151150
N 5.758750 21.099400 8.241190
N 1.479470 20.898700 10.728800
N 0.533729 20.500000 8.545720
N 1.617730 21.717100 7.527750
N 1.076700 21.080900 7.981410
N 3.789940 21.437400 7.602230
N 2.793540 20.587300 8.223980
N 3.487010 22.311900 8.239820
N 2.844090 21.675100 7.820410
N 3.345500 21.315600 8.570620
N 2.911700 22.352800 6.003120
N 5.167490 21.145500 9.074510
N 4.650870 21.184700 8.267150
N 4.300650 22.051600 8.960640
N 4.589240 22.144000 7.828760
N 5.181640 22.107700 8.546640
N 0.889050 21.932600 8.426500
N 1.442140 17.409900 9.220210
N 0.743273 18.087800 9.399450
N 4.841560 19.295100 10.020600
N 5.815830 20.259100 6.425580
N 1.890920 19.536100 9.613720
N 0.704490 21.096900 10.228900
N 3.359010 20.596400 10.662500
N 4.756930 21.406700 11.421100
N 5.775150 18.577900 10.088200
N 5.916590 22.016400 10.936400
N 1.103310 21.222600 14.690500
N 3.260530 22.010900 12.680500
N 4.933330 21.800000 14.813700
N 1.793850 19.335500 14.296200
N 0.840579 19.207100 13.899000
N 2.611370 21.347600 12.892500
N 2.568840 21.725200 13.796400
N 4.577760 21.848200 13.363100
N 5.018190 21.146500 12.922100
N 1.301180 19.727900 15.350600
N 2.276240 18.512800 14.914500
N 3.015730 18.572800 15.527200
N 3.096770 19.355100 16.028000
N 2.755110 18.993900 14.200500
N 3.325780 20.869700 15.021100
N 3.798250 20.626300 15.821500
N 3.084690 20.974600 14.102200
N 1.350620 20.146800 16.211300
N 1.241410 20.732300 15.510300
N 5.674470 22.349800 15.020800
N 3.562090 20.081600 16.620600
N 5.513400 21.786800 11.847700
N 2.254280 18.517700 17.045900
N 2.231050 17.576100 17.038300
N 5.269180 18.417800 19.102700
N 4.940900 20.153800 20.705100
N 3.076980 19.355400 17.022300
N 4.746740 19.552100 19.185600
N 4.449640 19.634300 20.064000
N 5.581280 19.836700 19.576800
N 5.730390 17.601700 18.890700
N 2.011040 17.189400 17.887200
N 5.742350 20.689100 19.990200
N 4.590090 22.135800 22.659000
N 1.928600 21.582600 23.561500
N 3.623940 20.845100 24.073900
N 2.719860 21.106900 23.691400
N 3.477400 21.802900 24.243500
N 0.543432 22.316500 24.387800
N 1.464320 22.269700 24.072200
N 4.570420 21.784400 31.507700
N 5.088190 21.978100 30.710800
N 5.595370 22.366700 31.688600
N 1.558860 25.274700 0.523976
N 3.601880 24.268300 1.428840
N 3.897090 23.144900 1.622590
N 5.571590 27.715400 0.662235
N 4.132060 22.833000 0.690475
N 5.718250 23.211700 0.532383
N 4.471480 23.934300 1.628830
N 5.163780 23.230900 1.688710
N 4.413390 25.178200 5.468120
N 1.428680 26.350400 0.925511
N 2.130360 25.722000 1.172700
N 4.794480 23.836800 5.583870
N 3.047960 26.044600 0.735289
N 0.879345 24.582700 2.504620
N 5.396040 24.962300 1.967530
N 3.946040 23.378500 5.498470
N 4.598770 25.234400 1.514760
N 5.251310 25.120400 0.881198
N 1.444980 22.555800 4.520820
N 4.736800 22.408400 1.453750
N 0.801610 23.303700 3.938460
N 2.097190 26.944700 1.151200
N 4.386270 24.667200 0.581362
N 4.088910 26.567000 1.045170
N 5.934530 25.779700 1.459910
N 3.738580 26.672000 2.031130
N 4.237410 27.768000 1.909100
N 3.005980 26.689100 1.489020
N 5.140270 27.762500 2.313340
N 5.250380 26.338500 0.867141
N 4.765920 27.174100 1.303100
N 1.957270 23.310700 4.219870
N 4.482360 22.733200 3.954420
N 2.389810 24.340800 4.134660
N 2.465730 25.072900 3.536590
N 1.570680 24.843900 3.313170
N 5.434610 23.881100 2.352280
N 5.401380 24.403300 4.055230
N 0.990819 25.452400 2.830450
N 3.335630 26.316800 2.897830
N 4.046370 25.895400 2.461450
N 5.305900 25.347000 4.229230
N 4.219900 25.576400 0.628226
N 2.668300 26.923800 2.567660
N 1.775280 26.890400 2.256590
N 2.020480 27.810600 2.008050
N 3.620410 23.974100 0.484238
N 4.667400 26.976800 2.569850
N 1.512700 24.102300 4.453320
N 3.393830 22.673900 5.201570
N 5.397780 23.687600 4.672630
N 4.998050 22.800900 5.095400
N 3.048480 23.149600 0.507185
N 5.931730 23.068400 5.118270
N 1.816550 22.887700 5.334350
N 0.866313 23.761200 3.077160
N 4.658680 25.818600 4.794410
N 5.653160 22.402700 5.786920
N 1.715350 23.717300 7.624440
N 1.880810 22.522400 6.331110
N 2.011200 22.743500 7.334040
N 5.745930 23.895300 7.819920
N 2.445250 24.099600 7.057840
N 2.464580 23.145000 6.667610
N 3.688670 22.778000 6.278440
N 4.453790 23.579300 6.528190
N 5.156560 24.084400 6.928890
N 4.642360 22.782300 6.067910
N 5.333240 24.434400 6.054220
N 5.415890 23.354000 6.198330
N 2.194850 24.738600 6.370400
N 1.477750 24.506100 6.910760
N 3.903000 24.562000 7.190950
N 4.282760 24.778000 6.309400
N 0.575322 24.732800 6.746600
N 1.423990 22.668700 8.254700
N 2.465730 22.600200 8.185770
N 2.778790 23.387300 7.741410
N 3.250030 23.197400 8.546420
N 3.765740 22.888000 9.509100
N 3.141080 23.650300 9.445450
N 5.298840 23.100700 8.328760
N 3.705320 23.904900 7.826040
N 4.624090 23.731700 7.755660
N 4.295580 23.070200 8.401160
N 1.669110 24.760700 9.085480
N 1.708660 24.799700 10.114600
N 1.795410 25.796600 8.646360
N 0.637062 24.818000 9.597790
N 2.546160 24.358200 9.634630
N 2.533800 25.157900 8.821890
N 0.956023 25.440900 8.375440
N 1.243900 22.797700 10.338000
N 2.170220 23.687900 10.250500
N 1.068060 23.512800 9.714620
N 3.710430 23.557600 10.246700
N 3.281540 23.045800 10.951800
N 0.942723 22.369700 6.115050
N 1.235490 27.050000 9.237730
N 1.750470 24.993900 11.245300
N 5.756060 25.660900 7.674910
N 2.428760 25.161900 10.593400
N 0.812111 23.673300 7.377850
N 1.035720 22.461400 7.038650
N 1.599710 25.900000 10.717500
N 0.835329 26.424000 10.622700
N 1.297060 27.143000 10.185800
N 5.501710 24.881100 8.144140
N 0.501176 22.791700 7.987150
N 0.590313 26.176600 7.901470
N 5.932860 26.242500 8.455540
N 0.554078 27.794400 9.293860
N 4.217830 23.387500 14.036200
N 5.137170 26.120900 16.206100
N 4.915940 27.605000 16.441000
N 2.132790 25.960500 11.489800
N 2.506820 23.154400 11.457900
N 5.160550 23.809400 16.741800
N 2.910570 22.399800 11.876500
N 0.635092 24.274400 15.024200
N 1.043410 23.858300 16.612500
N 4.389200 22.493900 14.343500
N 5.055110 24.064400 15.821300
N 5.434150 24.282500 14.922100
N 4.448560 22.779500 13.350200
N 3.547570 24.868400 16.383800
N 4.468400 25.032300 16.447800
N 5.853960 26.111700 15.585300
N 4.200240 24.060200 16.687000
N 5.784120 27.260700 16.268500
N 2.298350 24.007500 18.003500
N 3.150920 23.495100 18.175500
N 3.751530 27.639200 17.598300
N 1.231870 27.004700 21.684800
N 1.097600 23.174100 17.269800
N 1.324720 24.137400 18.069300
N 1.023440 25.621300 18.540800
N 5.419370 24.976500 19.883300
N 4.698560 27.488000 17.506500
N 4.668920 27.191800 18.467700
N 2.648430 23.645400 20.575300
N 1.813910 24.040300 20.426100
N 1.540150 25.388000 19.294600
N 1.334990 24.664900 19.882200
N 3.495120 25.076400 19.758600
N 4.899340 27.415900 21.164300
N 4.333050 24.890100 20.228800
N 4.614010 24.979500 19.304900
N 3.583780 26.004600 19.450400
N 3.909180 26.893000 19.460200
N 4.292340 26.960100 20.346300
N 4.882160 27.189100 19.393300
N 5.522640 27.461800 20.258300
N 4.000210 22.877400 21.342900
N 3.120890 22.969200 21.059900
N 4.773420 22.721900 21.901400
N 1.447940 25.708700 21.475000
N 4.215540 26.935000 21.668700
N 5.764620 27.448600 17.209300
N 0.584863 23.903400 17.589000
N 0.818138 26.352200 21.126000
N 4.002470 26.131700 22.208700
N 5.598980 25.519000 19.137400
N 2.952890 26.092500 21.186600
N 2.111080 25.931600 20.785800
N 3.736890 25.621700 21.468300
N 5.183770 26.651800 17.035500
N 1.591650 24.548800 22.364700
N 5.782480 24.379400 22.323300
N 1.928840 23.998200 23.034100
N 2.210260 27.377500 24.085700
N 5.697250 26.140800 26.506600
N 2.564470 24.442400 22.480200
N 3.252860 24.419600 23.127300
N 5.538630 23.620100 22.792800
N 3.997870 26.745200 27.793800
N 1.112780 25.377600 22.604700
N 5.416870 24.865000 23.682600
N 4.789700 25.545000 23.471700
N 5.520530 27.000100 23.778000
N 1.338640 26.792700 23.662300
N 5.575550 26.311300 24.753300
N 1.768260 26.555100 24.468800
N 3.599300 25.878200 26.135500
N 3.443500 25.975200 24.116800
N 4.641780 26.509700 23.308000
N 4.832630 27.568000 23.479200
N 3.943660 27.084300 23.207500
N 4.325860 27.716400 26.088900
N 0.953982 23.143800 24.715600
N 2.995060 23.751100 25.712000
N 3.618920 23.668700 24.547000
N 3.780040 23.299900 25.426700
N 3.270620 22.758000 24.410000
N 4.769470 23.281700 24.582800
N 4.819410 23.802900 25.532400
N 4.434530 23.241200 26.179200
N 2.860200 26.644300 26.400500
N 2.321290 24.693300 23.879500
N 1.526390 25.050700 23.430200
N 1.054950 25.765300 24.343500
N 3.184870 24.852600 24.245500
N 2.746880 24.312400 24.948100
N 3.272350 25.471600 25.158800
N 2.128080 25.046300 25.731600
N 3.087010 24.855100 25.891500
N 4.758530 24.284600 24.559200
N 5.194890 25.353500 24.565500
N 4.937940 24.761700 25.440800
N 5.414680 25.695100 25.715600
N 5.810120 25.848700 23.973700
N 1.484810 25.915300 25.225700
N 5.813950 26.799900 25.581000
N 3.750810 26.956100 24.164500
N 3.320360 27.546500 25.653000
N 3.721920 26.304600 24.979200
N 2.340550 25.935300 25.652500
N 4.074900 27.293800 25.146400
N 5.904840 24.380000 25.825400
N 3.009840 27.757100 24.752100
N 4.283510 27.364800 26.986400
N 3.873780 26.767700 25.956400
N 5.755590 25.151400 22.847800
N 3.613080 22.677100 27.208100
N 4.415280 23.334700 27.117700
N 3.335450 27.356500 26.781000
N 3.309100 23.488300 26.811600
N 2.951050 24.390700 26.807100
N 3.409480 25.214000 26.868000
N 5.191740 22.772800 22.994600
N 3.563660 23.394400 27.806700
N 5.464880 25.616600 27.506200
N 4.816790 24.266500 26.525300
N 5.150960 24.505600 27.397800
N 5.318290 25.042100 26.471600
N 3.824560 26.381400 26.926000
N 2.683440 25.798300 26.724700
N 3.653740 25.753700 27.722100
N 5.711010 24.547400 24.739500
N 4.236700 27.833700 24.255800
N 3.242940 24.317500 27.824100
N 3.575660 27.548600 28.391100
N 3.868230 26.585400 33.021900
N 3.941280 24.124700 28.542300
N 4.389690 27.086700 32.366900
N 4.553900 23.803600 27.886200
N 3.411880 24.936300 28.517200
N 2.487250 25.052200 28.695100
N 3.390340 25.186300 33.132200
N 5.309960 24.882100 28.314600
N 4.702840 24.445200 28.971800
N 5.508600 25.118800 29.351200
N 5.795770 25.743300 28.406800
N 5.431180 27.697200 28.415900
N 1.113390 26.515100 28.208300
N 1.562650 26.815800 29.051300
N 2.026950 26.160500 27.964100
N 1.797980 27.251900 33.063400
N 3.710020 26.115200 28.628000
N 1.633400 25.505100 28.527900
N 2.502970 27.396700 29.399600
N 3.561080 27.252000 29.334300
N 4.319160 26.854200 28.728300
N 5.048380 26.003200 29.189800
N 5.240360 27.319700 29.253300
N 4.428010 27.586800 29.638100
N 4.640970 27.221400 33.252200
N 3.676640 23.389200 30.577100
N 2.836630 23.717700 30.358800
N 5.825950 23.786600 30.633700
N 3.248500 24.084500 31.288200
N 4.933620 22.889700 30.168900
N 4.128590 23.721500 29.712100
N 4.489170 22.679400 30.983800
N 5.095850 23.773600 29.837400
N 5.272640 23.315200 31.236300
N 1.953700 25.622700 30.917500
N 1.666540 26.525600 30.727400
N 3.388670 24.553400 30.276200
N 3.725930 25.709300 30.496000
N 2.784770 25.224700 31.236900
N 2.689000 26.173700 30.611600
N 4.279560 24.900000 29.963300
N 5.061050 25.682600 30.096200
N 4.616360 25.092000 30.848200
N 5.451890 25.768800 31.007200
N 4.040960 24.605100 31.415500
N 0.732789 27.222600 29.544300
N 1.689800 27.457200 30.117300
N 1.940150 27.792500 30.979700
N 0.991992 27.226500 30.924600
N 2.217660 26.624100 29.776800
N 3.238470 26.556200 29.934600
N 3.366580 26.663700 30.969600
N 3.937060 27.122000 30.386700
N 4.464820 26.233000 30.842000
N 4.863300 26.744700 30.131000
N 2.243820 26.103600 33.136000
N 3.368280 23.205200 32.019400
N 3.443810 24.131800 32.356100
N 0.475331 27.620900 31.580000
N 5.414130 23.273600 32.264300
N 4.472740 27.591400 27.926900
N 4.739820 26.181800 32.897400
N 1.319980 25.454100 32.440900
N 1.915880 26.174300 31.785200
N 3.438990 22.568400 32.724600
N 3.902340 25.639900 31.465500
N 2.317840 25.453100 32.418600
N 4.102460 25.531100 32.359000
N 3.318680 25.069000 32.028100
N 3.135500 25.996100 32.636200
N 2.881090 26.087200 31.689400
N 4.285820 24.538300 32.502800
N 4.940930 25.314200 31.868400
N 5.704850 25.828300 32.116500
N 5.059910 25.206100 32.826200
N 0.951140 27.610500 32.511700
N 1.409010 26.446100 32.674300
N 1.482880 26.992600 31.816300
N 2.240830 27.751100 32.018700
N 3.631990 26.615000 31.970600
N 4.931060 22.694600 33.028700
N 5.545420 26.805900 32.228200
N 4.955240 27.755000 31.587800
N 4.752290 26.294000 31.870200
N 5.207740 26.884900 31.232500
N 4.747790 22.548100 32.041700
N 5.161320 27.731400 32.503900
N 5.941280 26.718800 28.712900
N 2.731260 28.951400 1.073250
N 4.095420 28.996100 0.646641
N 3.583810 28.496400 1.255470
N 4.272550 28.750800 2.061940
N 4.720880 29.168500 1.330330
N 5.834750 29.205100 1.497730
N 5.507610 28.241200 1.450360
N 5.394060 28.777700 2.229170
N 5.439670 33.216600 2.238140
N 4.085990 30.979600 1.735530
N 4.521750 30.215700 1.321170
N 2.629440 32.456800 1.309670
N 2.374100 31.550400 1.311420
N 4.187950 31.902700 1.429460
N 3.309390 31.601000 1.563960
N 3.119270 27.855000 1.986220
N 2.622840 28.178500 4.337230
N 3.086130 29.017700 4.328630
N 5.624150 32.741400 4.157030
N 3.003380 28.456500 2.695460
N 2.541440 28.816900 3.438890
N 0.979924 27.885400 0.583208
N 4.787870 33.027100 3.053060
N 3.040720 29.596600 3.555350
N 5.791100 33.226300 3.131330
N 4.022660 30.067700 0.567647
N 2.718140 27.921100 1.166550
N 1.836340 28.200400 0.852726
N 1.339080 30.230800 10.034700
N 0.821991 29.451600 9.856620
N 0.587891 29.111700 9.040670
N 1.631200 30.483100 10.926700
N 1.345350 29.746100 11.399000
N 1.874920 29.464000 13.245200
N 2.062330 30.253600 12.646600
N 1.905210 29.435100 12.097800
N 4.456270 32.833800 16.596500
N 3.167160 31.468700 16.757600
N 1.271970 28.896300 13.689100
N 1.049420 30.570600 13.295600
N 0.989142 29.791800 13.858900
N 5.039450 31.972000 16.276500
N 2.450580 29.508800 16.517000
N 5.342090 28.340000 16.783000
N 5.272780 32.998000 16.182700
N 5.712150 29.467700 16.286100
N 4.034710 30.668500 16.523600
N 5.309560 30.385700 16.577800
N 4.834620 30.920600 15.989300
N 5.711370 31.369700 16.512700
N 4.165450 31.644700 16.212100
N 5.025180 29.249600 16.878000
N 3.607370 28.822000 17.920400
N 2.774320 28.841000 18.494200
N 4.018200 29.297300 16.991500
N 2.945190 29.129100 17.343600
N 5.806720 28.883700 21.107200
N 4.778320 32.946700 20.774900
N 5.212620 28.483300 17.761300
N 4.304920 28.442600 17.252600
N 4.344800 28.215100 18.323800
N 5.741000 29.252300 18.024800
N 5.466080 31.844100 20.948500
N 1.565390 31.825400 22.276500
N 2.214050 30.883100 18.826100
N 4.621810 31.384000 21.869500
N 2.577540 30.061100 17.896100
N 3.701860 29.865500 17.995800
N 3.489180 30.044500 17.075600
N 3.127080 30.746300 18.282200
N 3.815420 30.920700 17.474900
N 2.705960 31.188700 17.577300
N 4.207950 30.725800 18.353800
N 5.584680 29.860500 17.368900
N 2.562090 32.161700 16.997400
N 3.342010 31.849500 17.923500
N 3.244100 32.659500 17.443800
N 4.000810 31.974200 17.089000
N 3.931780 32.399500 18.430500
N 2.858340 33.197700 18.982000
N 5.737080 32.893900 20.879100
N 4.447430 31.671400 17.986900
N 4.448890 32.691900 17.595100
N 4.938520 32.334800 18.386900
N 5.352890 33.213500 17.125500
N 5.770510 29.988700 21.961100
N 2.226440 29.504000 18.896500
N 5.401350 33.091700 18.932400
N 1.491150 30.053500 20.460400
N 3.679670 29.534400 19.609400
N 3.931230 28.940200 18.779200
N 4.144750 28.043100 19.194800
N 5.116420 28.083900 19.323300
N 4.390980 28.782600 19.701100
N 4.125190 29.381700 20.564800
N 5.284560 28.411600 20.444400
N 5.147000 29.452800 20.581900
N 5.028110 33.309400 17.998200
N 1.435440 30.742100 19.409700
N 2.056730 31.596800 19.591600
N 2.150220 30.690000 20.276400
N 0.902729 30.789100 20.306400
N 3.210160 29.723500 18.799800
N 2.553920 30.212000 19.451000
N 3.822080 31.432700 18.777100
N 3.797650 30.461500 19.381800
N 3.045220 31.025200 20.051800
N 4.196800 30.288400 20.248500
N 4.756770 29.641500 19.660200
N 4.294600 31.226200 19.833600
N 4.307250 29.821900 18.796000
N 4.819910 31.361000 18.826500
N 4.778620 30.523700 19.242000
N 5.290690 31.204200 19.706500
N 5.265900 30.269100 20.175400
N 5.851650 31.068500 20.546900
N 5.450800 27.909600 18.477900
N 1.108900 31.002200 22.211800
N 1.073460 31.700400 19.427900
N 1.875430 32.936300 18.983100
N 2.472600 32.669400 19.797500
N 3.227310 31.831400 21.333800
N 2.922410 31.760500 18.909200
N 2.556460 31.797200 20.434900
N 4.404710 32.134200 21.343000
N 3.313510 32.199300 19.660300
N 3.942240 32.808200 20.167600
N 4.365230 32.188900 19.257600
N 5.334240 32.177400 19.245100
N 4.786990 31.970800 20.215600
N 4.869210 32.866200 19.717100
N 5.831700 31.911300 20.031800
N 0.563774 31.058900 21.262900
N 4.459320 33.219000 18.873900
N 2.168760 29.424700 22.026600
N 5.339300 28.157000 21.518200
N 4.046920 28.436900 20.836600
N 4.787340 29.439200 21.524900
N 5.934880 32.803800 19.740700
N 4.477910 27.870300 20.211100
N 1.259640 29.832600 21.444600
N 2.235860 29.892600 21.176400
N 1.349560 30.044700 22.324200
N 2.220540 30.297500 17.054600
N 3.012700 29.869700 21.984100
N 4.009780 30.216900 21.948600
N 3.793200 31.795600 20.579500
N 2.763610 30.935500 21.092100
N 3.708370 30.639000 21.079000
N 3.285440 31.005700 21.915300
N 2.947420 28.165300 17.466100
N 4.737660 31.114300 20.672900
N 4.769550 30.258100 21.114900
N 5.718420 30.221400 21.075600
N 5.393050 31.002600 21.562200
N 0.946794 31.925600 21.398700
N 0.900158 32.696900 20.908100
N 1.590500 32.740400 21.766500
N 3.116610 32.701600 20.646100
N 3.740440 31.920200 22.172700
N 3.703360 32.702800 21.496300
N 0.503543 32.441400 19.701200
N 5.554910 32.357700 26.790700
N 3.726250 29.879100 22.962000
N 4.798690 29.518400 24.313600
N 5.825120 29.074300 23.959100
N 5.225900 27.997700 24.207300
N 1.841950 29.940200 23.358100
N 1.532150 31.138300 23.066700
N 0.905692 30.063300 23.116400
N 3.876310 31.069700 22.576700
N 3.498330 30.712200 23.429600
N 2.685510 30.962100 23.970500
N 2.561220 30.015300 23.984400
N 5.302270 31.042300 23.908600
N 5.467050 30.083100 23.851100
N 5.589250 30.514600 22.933500
N 5.009190 31.329300 22.814100
N 4.131010 31.349200 23.858500
N 3.887240 31.858200 26.707900
N 5.448560 33.246700 27.053500
N 1.219770 32.171400 23.264400
N 2.201410 31.851600 23.228000
N 2.122050 32.620100 22.663000
N 1.810720 32.620800 23.864300
N 2.707370 32.731400 23.531100
N 5.557050 32.251800 22.519100
N 4.888030 32.902100 23.254100
N 4.384140 31.977100 23.146900
N 5.241880 32.018300 23.993000
N 4.387180 32.464800 24.174400
N 1.711100 28.045700 23.468000
N 5.903400 33.156900 22.730100
N 4.794860 28.640500 24.829400
N 4.093410 28.280800 25.331800
N 5.664450 29.347100 24.838300
N 5.731320 28.874000 25.799500
N 5.550530 31.771100 25.875800
N 2.771580 30.008300 22.879300
N 2.468490 33.076000 24.631700
N 3.559980 31.820900 24.458600
N 5.521520 30.366700 24.870000
N 5.467980 31.287800 25.026400
N 5.601300 30.786300 26.010000
N 4.628880 31.009900 25.622900
N 5.746800 29.903600 25.708100
N 2.616660 31.863400 24.242200
N 3.324960 32.897700 24.345400
N 5.123770 33.036600 24.205800
N 5.668440 31.391300 26.813900
N 4.612190 31.699600 24.940700
N 5.202570 32.408500 25.208800
N 4.427560 33.184400 26.131500
N 4.552850 32.218000 26.097200
N 2.331040 29.334400 27.510000
N 2.725210 29.464700 26.586600
N 3.256000 28.933700 27.372900
N 5.480740 28.900000 26.704500
N 5.131970 30.503900 27.194900
N 4.679920 28.755800 26.228900
N 4.643300 28.231400 27.050200
N 0.913118 30.445900 27.573500
N 2.585110 30.265000 27.076200
N 1.831580 30.304800 27.662500
N 4.704180 31.296500 26.554800
N 5.237830 31.582200 27.684000
N 0.558045 28.585600 23.108500
N 5.672860 29.916800 26.659600
N 1.288560 28.872400 23.709800
N 5.377080 32.934500 25.976400
N 3.578000 28.004100 27.450800
N 4.267240 32.714800 22.420700
N 4.848310 30.386900 22.385600
N 3.739860 28.233100 29.033500
N 2.380850 28.337900 29.239100
N 4.848850 28.340100 28.788800
N 4.215920 29.179400 29.044600
N 4.573280 30.734000 32.664700
N 4.545890 30.108400 28.943200
N 4.690110 30.502200 28.075000
N 2.885330 32.970100 33.125900
N 1.613690 28.328000 32.635600
N 1.927650 28.845200 30.810200
N 2.349760 28.315400 30.188000
N 2.612180 29.390900 31.182400
N 3.359180 28.915000 29.565900
N 3.142960 28.868600 30.490900
N 3.964100 29.425500 30.744900
N 2.801410 28.322600 31.159900
N 2.502020 29.485100 29.922500
N 5.123160 29.161300 29.510100
N 5.297380 28.282000 29.877600
N 5.486820 28.228900 30.817200
N 2.365440 30.423300 29.912000
N 3.305880 30.283000 30.143200
N 4.102040 30.645400 30.504300
N 5.113860 30.080100 29.823600
N 4.133810 29.695700 29.841600
N 4.669980 30.119900 31.054500
N 5.616940 29.999200 30.624900
N 3.199030 29.313400 33.234200
N 1.331380 27.959500 29.408100
N 3.287290 28.391600 33.176500
N 2.788340 33.153800 32.233700
N 2.100580 28.940200 32.033600
N 2.216420 28.961700 32.993000
N 1.445080 28.284800 31.607100
N 5.833510 32.298400 27.908200
N 3.014090 28.445900 32.265500
N 3.462980 28.977800 31.490800
N 3.053220 29.497800 32.275700
N 3.827620 28.959500 32.430300
N 4.585630 29.474700 32.795100
N 4.386790 29.502200 31.679100
N 3.397970 30.113800 31.218300
N 3.920310 30.156800 32.296800
N 5.744100 28.377700 31.782100
N 5.059330 30.137200 32.081400
N 5.857290 29.713300 29.249100
N 5.884140 30.334800 31.608000
N 5.887890 28.288000 32.714200
N 2.474730 27.892400 32.921900
N 5.220660 29.928900 33.288900
N 7.001210 1.805530 1.480600
N 6.683410 4.330340 4.769260
N 6.157980 2.246660 1.405860
N 10.900500 2.119710 4.998450
N 6.619330 5.283580 4.902230
N 10.545300 2.993640 4.722750
N 9.727050 3.189600 5.225300
N 6.762520 5.831450 4.092750
N 8.330870 3.892130 4.738640
N 7.430690 3.837700 4.434290
N 9.171650 3.959350 5.195680
N 11.384100 2.023810 15.925500
N 10.230200 3.245460 12.430000
N 9.686160 3.599640 13.173000
N 10.802600 3.767730 13.079400
N 10.665600 3.665740 14.967100
N 10.641800 3.872000 14.012600
N 10.960500 2.883200 15.458300
N 6.384960 0.567274 17.371600
N 6.970310 1.234640 18.649400
N 10.717200 5.606130 22.334200
N 10.179200 5.600830 21.565000
N 10.948900 0.988802 17.838300
N 10.291000 0.567840 18.380200
N 10.331500 1.756510 17.572000
N 10.098300 2.530830 18.123100