1900
Atoms. Timestep: 3550000
H 1.929580 0.676175 19.980400
H 1.924950 0.691856 19.989800
H 2.519390 1.401520 20.453200
H 2.527150 1.392700 20.429000
H 3.117500 0.622781 21.879900
H 3.628200 1.473620 22.096600
H 3.619410 1.452910 22.122600
H 3.139610 1.680080 21.233800
H 3.148890 1.684590 21.203600
H 2.572250 0.600313 21.037300
H 3.122780 0.640775 21.871100
H 2.567490 0.597083 21.045200
H 3.830250 0.780878 22.881300
H 3.836660 0.816338 22.868800
H 5.744730 11.379700 15.124400
H 5.615310 10.666600 15.819600
H 5.771580 10.224300 16.756600
H 5.624630 10.611400 15.807700
H 5.773770 10.266500 16.761100
H 5.725870 11.444900 15.145900
H 2.845810 20.113100 5.723230
H 2.876920 20.079900 5.731620
H 5.028080 20.659900 5.767120
H 4.050070 20.451700 5.775930
H 2.867830 20.085400 5.713450
H 3.707890 19.637900 5.306220
H 3.683970 19.658600 5.319890
H 3.720540 19.636200 5.327700
H 4.567520 20.455700 5.710910
H 4.541370 20.466100 5.705500
H 4.731320 19.626600 5.150710
H 4.743870 19.632600 5.171090
H 4.707380 19.641500 5.164770
H 5.663900 20.054400 5.288590
H 5.672690 20.070200 5.303780
H 5.641820 20.066200 5.299430
H 2.417500 20.883100 6.266700
H 2.439030 20.844800 6.274640
H 2.436240 20.849000 6.263280
H 2.513790 21.762300 6.804690
H 2.528770 21.724200 6.808390
H 2.524230 21.726000 6.811240
H 3.457700 21.502400 6.530980
H 3.756440 21.871000 6.724190
H 3.444580 21.526500 6.525460
H 3.414250 21.057200 6.254470
H 3.610590 20.701900 5.984730
H 3.634050 20.679300 5.991170
H 4.391180 21.278800 6.250720
H 4.214830 22.101800 6.790530
H 4.209350 22.115300 6.786970
H 4.375360 21.290700 6.246230
H 4.392260 21.265500 6.245650
H 5.370270 21.473700 6.236840
H 4.734450 22.079200 6.715370
H 5.148310 21.878200 6.510260
H 5.140130 21.879500 6.507740
H 0.746510 22.281500 9.509100
H 5.324650 21.055100 5.970450
H 5.306140 21.054900 5.967010
H 5.402830 24.132300 1.204960
H 5.495220 24.113800 1.184730
H 4.778900 23.617200 0.626117
H 4.685600 23.654400 0.631442
H 3.692840 27.523600 0.975345
H 3.704910 27.491700 0.972199
H 3.725680 27.505600 0.967619
H 3.120620 22.476500 7.202720
H 4.038490 22.924900 7.330340
H 4.053200 22.904300 7.340600
H 4.043340 22.939900 7.327700
H 5.066750 22.922800 7.172580
H 5.061810 22.921300 7.173740
H 5.076630 22.893000 7.185090
H 1.828450 25.022700 7.688490
H 0.964965 25.451900 7.311850
H 5.916690 22.445500 6.777860
H 5.905440 22.477700 6.769810
H 2.234660 23.434900 8.834610
H 1.287480 23.652100 8.598800
H 1.668530 22.701800 9.296990
H 2.293190 24.284400 8.245850
H 1.084380 24.446000 8.025740
H 0.543408 23.075400 8.936040
H 3.109670 22.487400 7.197660
H 3.108890 22.515200 7.193040
H 5.904900 22.468300 6.769240
H 4.612040 25.984800 26.265500
H 5.376570 27.829000 26.385500
H 4.606030 25.975700 26.228200
H 5.197020 27.658100 25.322600
H 4.854000 26.368800 27.156600
H 5.332830 27.492900 27.363700
H 5.340410 27.488900 27.310200
H 4.994310 26.906900 26.325500
H 4.988630 26.898200 26.279200
H 3.891260 24.476800 25.167300
H 3.871640 24.462500 25.146200
H 4.128140 25.217000 24.483400
H 4.099240 25.199800 24.456000
H 4.352630 25.587700 25.342100
H 4.370090 25.600900 25.374400
H 4.462640 26.144900 24.240600
H 4.494680 26.162900 24.277000
H 4.864450 27.044700 24.557800
H 4.892670 27.061100 24.603400
H 4.752360 26.523000 25.434400
H 4.735240 26.510200 25.393000
H 4.859420 26.363700 27.114400
H 5.215460 27.670900 25.375200
H 3.847520 24.140700 26.145500
H 3.840820 24.130800 26.126400
H 4.008630 24.298700 27.155800
H 4.015030 24.293300 27.133800
H 4.223420 25.053200 26.177300
H 4.229780 25.062800 26.205500
H 4.476810 25.441200 27.063400
H 4.471730 25.446700 27.096600
H 5.371240 27.820700 26.330100
H 4.347600 24.906700 27.898600
H 4.331420 24.908500 27.927600
H 4.749420 25.806500 28.215800
H 4.729410 25.806800 28.254000
H 5.095950 26.752700 28.047600
H 5.112810 26.751700 28.000500
H 4.284780 23.560900 31.543000
H 4.639380 24.016300 30.683500
H 4.614690 24.056200 30.686700
H 5.304640 24.658900 30.218500
H 5.305960 24.681100 30.235800
H 5.551700 24.687000 31.187100
H 5.533480 24.703100 31.209200
H 2.449680 26.937000 31.353100
H 2.396740 26.966900 31.377800
H 2.472670 26.934600 31.351100
H 2.800110 27.377800 30.484400
H 2.743960 27.392700 30.500400
H 2.821950 27.372100 30.480200
H 2.972060 27.002800 33.282500
H 4.230560 23.610400 31.538400
H 4.256520 23.463400 32.562900
H 4.335840 23.414900 32.566600
H 4.995780 24.167800 31.860600
H 5.041770 24.138000 31.849300
H 5.288830 24.166200 32.817900
H 5.223300 24.189800 32.834100
H 2.994430 27.011700 33.280200
H 5.798760 24.715200 32.155700
H 5.761000 24.725100 32.182700
H 3.482230 27.536300 32.607900
H 3.503130 27.543300 32.603100
H 2.512620 26.799700 32.377200
H 2.535800 26.802700 32.376000
H 2.470170 26.838800 32.402500
H 3.455600 27.560000 32.613500
H 3.181690 27.522200 31.652500
H 3.221040 27.503400 31.643200
H 3.242250 27.504800 31.638500
H 2.944580 27.042500 33.299800
H 4.514780 28.135500 1.008730
H 5.201700 28.777800 0.517544
H 5.189300 28.762300 0.500085
H 4.533590 28.152100 1.001040
H 5.184690 28.761700 0.528278
H 4.514470 28.153100 0.995208
H 4.613040 29.362300 17.916700
H 4.641890 29.417100 17.848300
H 4.627690 29.383200 17.911700
H 4.626240 29.385600 17.907900
H 4.645250 29.352600 17.886500
H 4.522490 30.187500 17.298100
H 4.536230 30.214300 17.301400
H 4.576220 30.258700 17.249100
H 4.534710 30.210000 17.288400
H 4.560660 30.174900 17.263300
H 4.748340 31.174100 17.080800
H 5.175300 30.072400 18.334500
H 5.126530 30.512200 18.035600
H 5.148530 30.534700 18.021300
H 5.137900 30.504600 18.045500
H 5.225840 30.982100 17.938200
H 5.244080 30.977500 17.914900
H 5.510620 31.465700 18.067600
H 4.782800 31.162700 17.047300
H 4.767200 31.201000 17.089800
H 4.760340 31.196300 17.069300
H 4.817240 31.248300 17.063700
H 5.158190 30.076200 18.356100
H 5.480510 31.447400 18.046100
H 5.499150 31.436900 18.061600
H 5.774140 31.697400 18.363000
H 5.770990 31.696000 18.377600
H 5.842920 32.602400 17.943400
H 5.852450 32.625100 17.944300
H 5.242660 32.080300 17.309400
H 5.300390 32.120600 17.341800
H 5.258720 32.078900 17.333700
H 5.252140 32.051200 17.296200
H 5.230080 32.057900 17.323000
H 5.896200 32.642000 18.008800
H 5.838630 32.601900 17.959700
H 5.879090 32.612700 17.967600
H 2.662460 31.869500 22.253900
H 5.931060 30.155800 19.519200
H 5.568040 28.978200 19.631400
H 5.017080 28.930200 18.757300
H 4.995740 28.919700 18.770700
H 4.996660 28.948800 18.700800
H 5.013890 28.916000 18.749700
H 5.010400 28.944100 18.761800
H 5.584250 29.003700 19.621400
H 5.567810 28.982100 19.621800
H 5.545480 28.979500 19.578000
H 5.600070 28.977000 19.611500
H 5.364370 29.879300 18.772300
H 5.378330 29.862500 18.773400
H 5.358750 29.879800 18.747100
H 5.635690 29.884200 19.213500
H 5.720840 30.810800 18.793400
H 5.739580 30.794800 18.789600
H 5.718350 30.814400 18.782800
H 5.703340 30.790100 18.795500
H 5.705360 30.792300 18.782600
H 5.636580 29.887200 19.202200
H 1.516310 32.581000 19.978000
H 1.515560 32.595200 19.967800
H 2.615580 32.646600 21.637200
H 2.091560 30.759200 22.040600
H 2.085830 30.785300 22.087600
H 1.398050 31.653500 20.422400
H 1.400920 31.658400 20.393200
H 1.611750 30.986400 21.151900
H 1.606510 30.996200 21.194600
H 2.617360 32.661900 21.645600
H 2.066830 32.621400 20.811800
H 2.065570 32.620900 20.802500
H 2.113670 31.816500 21.394600
H 2.111930 31.829100 21.420100
H 2.663680 31.842200 22.229300
H 2.711780 31.037800 22.821300
H 2.707560 31.077100 22.862200
H 3.306220 31.747400 23.284700
H 3.305130 31.793700 23.310800
H 3.715610 32.698000 23.306700
H 3.718410 32.742800 23.313200
H 3.167880 32.702400 22.479400
H 3.165600 32.672300 22.472000
H 3.966630 28.077500 31.927200
H 4.011830 28.074900 31.925900
H 4.253590 28.102600 32.898000
H 3.731210 28.036900 30.968600
H 3.750940 28.036400 30.961300
H 3.470020 28.004000 30.003900
H 3.490060 27.997800 29.996800
H 4.240420 28.631400 30.025100
H 4.297980 28.644300 30.030200
H 4.279900 28.647800 30.040500
H 5.029220 29.138100 30.571500
H 5.012740 29.136700 30.584200
H 4.988690 29.112500 30.554700
H 4.520520 28.606500 31.248700
H 3.692710 28.039700 30.966300
H 4.272710 28.113500 32.890500
H 4.477660 28.595000 31.241000
H 4.502570 28.603200 31.258800
H 4.240550 28.115300 32.888200
H 5.472180 29.339800 31.489400
H 5.550990 29.215300 32.500700
H 5.463090 29.316200 31.452000
H 4.763760 28.636100 32.223400
H 4.751580 28.632800 32.201900
H 4.781410 28.645100 32.213300
H 5.487860 29.347200 31.475800
H 5.536520 29.188100 32.476600
H 5.535120 29.202500 32.513600
H 3.992400 28.069800 31.933300
H 3.418800 28.001900 30.005300
H 11.155100 0.732583 18.979000
H 11.132600 0.770472 18.961000
H 11.099300 0.795960 18.933000
H 6.067890 0.508934 24.476400
H 6.163180 0.738389 25.494500
H 6.165730 0.724122 25.484300
H 9.800140 0.904346 25.524200
H 9.757530 0.912013 25.503500
H 9.786480 0.944812 25.540100
H 9.904320 1.595140 26.267400
H 9.932010 1.624160 26.307600
H 10.143000 0.708594 26.663600
H 10.160300 0.734415 26.702800
H 10.204700 1.807300 27.262200
H 9.938330 1.592500 26.285100
H 10.179000 1.803170 27.243600
H 10.199900 1.826700 27.286800
H 10.177400 0.709224 26.688400
H 6.043070 0.506360 24.492800
H 10.472200 0.658580 27.642600
H 10.444900 0.651203 27.615200
H 10.453500 0.671411 27.656700
H 10.508100 1.480360 28.170600
H 10.518300 1.498150 28.215500
H 10.527800 1.491210 28.193500
H 10.803300 0.713206 28.799900
H 10.802000 0.726556 28.844700
H 10.821100 0.728909 28.829600
H 6.122940 11.322800 16.303100
H 6.117320 11.372300 16.319500
H 6.146200 10.322200 17.716700
H 6.383730 11.178300 17.257600
H 6.389070 11.214900 17.268900
H 6.158800 10.351800 17.718300
H 6.648110 10.878900 18.430800
H 6.667230 10.899600 18.434700
H 9.017820 10.756500 22.267100
H 8.335750 9.707890 22.145000
H 8.233740 10.627000 21.679700
H 8.209430 10.693100 21.681900
H 9.038240 10.721600 22.266100
H 8.294430 9.760560 22.123300
H 9.615630 8.927220 23.468700
H 9.562990 8.920660 23.421400
H 8.789860 9.111780 22.759900
H 8.841560 9.085710 22.799800
H 10.406600 9.238400 23.930300
H 10.450600 9.274880 23.972500
H 9.342150 9.950960 22.826100
H 9.308030 9.965770 22.806100
H 10.634600 10.883100 23.437500
H 10.116400 10.029100 23.391300
H 10.146600 10.045500 23.412400
H 10.647200 10.910800 23.438700
H 9.842740 10.816200 22.852400
H 9.826210 10.819800 22.852300
H 11.094800 9.979870 24.150400
H 11.122600 10.035500 24.176100
H 9.949190 15.245100 15.959100
H 9.954310 15.244300 15.980200
H 6.075840 12.392800 14.920700
H 9.469830 15.672600 16.742900
H 9.843400 15.602400 15.053100
H 7.464890 13.889400 16.877800
H 10.331600 15.185500 13.997000
H 10.385700 15.163200 14.029000
H 10.923300 14.387700 14.454700
H 10.872800 14.400100 14.399400
H 9.487400 15.667700 16.739000
H 9.114370 16.589600 14.736300
H 9.138740 16.565900 14.720000
H 9.818600 15.616000 15.039700
H 9.688010 15.986900 14.120300
H 9.732480 15.960500 14.126100
H 6.347590 12.235400 15.870100
H 6.360470 12.178900 15.844100
H 6.858790 12.890300 16.339500
H 6.849600 12.941000 16.370000
H 6.571440 13.256300 15.204300
H 6.594410 13.189700 15.166400
H 7.079860 13.804100 15.920600
H 7.096320 13.746400 15.880500
H 11.166400 13.841100 15.219800
H 11.201200 13.841600 15.289100
H 10.549700 14.457900 16.144500
H 10.541600 14.451700 16.098700
H 10.411000 14.822600 15.179300
H 10.438800 14.816000 15.217400
H 11.145100 13.671500 16.308800
H 11.134000 13.658300 16.238300
H 6.099690 12.323500 14.889600
H 8.707370 16.646900 16.671200
H 8.731940 16.649200 16.698400
H 8.763520 16.817100 15.651600
H 9.356810 16.038600 15.819600
H 9.358910 16.030700 15.815900
H 8.764430 16.832000 15.680000
H 6.621260 12.034300 16.798600
H 6.619330 12.078000 16.819500
H 10.079800 14.874200 16.878500
H 7.470940 13.844300 16.840600
H 7.121340 12.783600 17.319400
H 7.119570 12.745800 17.294000
H 6.882040 11.889700 17.753000
H 6.891080 11.920500 17.768800
H 7.512790 12.711000 18.493000
H 9.538830 11.586900 22.292300
H 7.497790 12.688900 18.472800
H 7.623360 13.489300 17.819300
H 7.617890 13.457200 17.789400
H 10.784000 13.900700 17.181900
H 10.769900 13.922700 17.240300
H 10.176100 14.528100 17.834200
H 10.210400 14.503300 17.797900
H 8.985340 16.100900 17.505600
H 9.025610 16.090200 17.518800
H 9.566760 15.304800 17.921200
H 9.522950 15.325300 17.931300
H 7.162830 11.763100 18.718200
H 9.535990 11.610400 22.313300
H 7.142830 11.745100 18.707500
H 10.069800 12.705200 22.236000
H 8.557640 11.659700 21.554200
H 8.562860 11.596900 21.528700
H 10.089400 12.718900 22.283200
H 9.234920 12.357500 21.732300
H 9.245770 12.401100 21.774300
H 10.065200 14.886200 16.907200
H 10.343300 11.681500 22.878700
H 10.344400 11.673800 22.898500
H 10.843900 12.546700 22.904900
H 10.862500 12.527800 22.944600
H 11.358000 11.879000 23.581300
H 11.349700 11.924500 23.559800
H 6.236920 20.819000 5.687780
H 6.255750 20.806700 5.682910
H 6.258130 20.831500 5.690190
H 6.343320 21.712700 6.226800
H 6.348280 21.681900 6.228030
H 6.333220 21.698300 6.225770
H 6.958140 25.414000 0.773790
H 6.907310 25.394000 0.824836
H 6.216030 24.769100 1.275740
H 6.292880 24.771400 1.238790
H 11.251600 25.809300 4.557070
H 10.223300 23.972600 3.724780
H 10.177400 24.007900 3.782000
H 8.961390 25.245700 2.837890
H 8.924110 25.287100 2.891660
H 9.411730 24.441500 3.236630
H 9.458880 24.402700 3.174820
H 9.708220 25.594800 3.403860
H 9.647340 26.148400 3.412040
H 10.339200 24.958300 3.847300
H 9.930600 25.210200 3.610590
H 10.455000 25.943900 3.969820
H 10.449500 25.978900 3.984550
H 10.968300 26.747500 4.358520
H 8.864120 26.275800 2.804260
H 8.845210 26.318000 2.839530
H 9.196170 27.258000 3.094210
H 9.193140 27.217000 3.082940
H 10.570900 26.929600 4.092340
H 10.166200 26.917100 3.786000
H 9.824090 26.580500 3.526380
H 9.860290 27.817100 3.599250
H 11.016000 24.102400 4.381650
H 11.049800 24.070800 4.340390
H 11.201900 26.293000 4.535790
H 10.732700 25.040600 4.183100
H 11.086000 25.307400 4.413260
H 7.418380 23.565900 25.844200
H 7.442430 23.584500 25.848900
H 7.811520 24.499000 25.534000
H 7.778580 24.480100 25.518200
H 8.202490 25.401800 25.724200
H 8.242810 25.414700 25.751300
H 8.576540 26.084100 26.407000
H 8.843990 26.333700 27.422800
H 7.232270 22.672400 27.623800
H 7.234410 22.916300 26.611700
H 7.218420 22.904300 26.614900
H 7.243220 22.673300 27.618000
H 7.639010 23.709900 27.066000
H 7.617400 23.706300 27.059300
H 8.620720 26.086200 26.442600
H 8.016380 24.508300 27.503700
H 8.043610 24.503500 27.520400
H 7.897480 24.494200 26.510900
H 7.927560 24.501200 26.527200
H 8.332160 25.294900 26.981500
H 8.296460 25.296200 26.955400
H 8.800490 26.344200 27.383700
H 7.466500 22.920700 28.598100
H 7.456220 22.932500 28.600500
H 7.830260 23.614900 29.283300
H 7.844410 23.592200 29.289500
H 7.755050 23.712100 28.059300
H 7.736300 23.720400 28.052100
H 8.448200 25.297100 27.974700
H 8.275690 24.507900 29.506800
H 8.254180 24.536600 29.489300
H 8.159650 24.505700 28.513600
H 8.135280 24.522500 28.496500
H 8.644790 25.422400 29.191900
H 8.614380 25.450700 29.163200
H 8.415360 25.310400 27.948100
H 8.814340 26.112400 28.392500
H 8.852800 26.090700 28.429100
H 6.102300 25.316600 30.272600
H 6.818620 25.813100 30.831200
H 6.836400 25.795700 30.880100
H 6.119170 25.317800 30.306500
H 5.988510 24.747100 33.156200
H 6.045820 24.743300 33.124200
H 6.308690 25.264100 31.493400
H 7.265470 25.986700 31.802600
H 7.261680 26.015400 31.744700
H 6.555750 25.292300 32.462000
H 6.526210 25.282400 32.504900
H 7.291430 25.839700 32.827000
H 7.312740 25.869400 32.768300
H 6.298700 25.260400 31.531400
H 9.882950 27.855300 3.587450
H 10.686800 27.915200 4.214870
H 10.721500 27.949800 4.187100
H 10.372400 33.221700 19.549900
H 10.834400 32.381800 22.210800
H 11.309600 32.765200 21.417500
H 6.082930 31.741700 18.839700
H 6.176590 29.522300 20.268100
H 6.220440 29.510800 20.245500
H 6.158590 29.533300 20.269000
H 6.194040 29.548500 20.256300
H 6.141290 29.500900 20.245000
H 10.340500 33.249000 19.511700
H 5.980010 30.152800 19.517500
H 10.122500 32.525900 21.363600
H 11.079300 32.830400 21.081900
H 6.180830 30.598100 19.652900
H 6.310170 31.116600 19.530100
H 6.341250 31.085100 19.533700
H 6.293150 31.086800 19.565600
H 6.166640 30.607100 19.650300
H 6.942930 31.375400 20.277800
H 6.884180 31.392700 20.292900
H 6.850060 31.409600 20.301900
H 6.865470 31.362800 20.337700
H 6.627920 30.421900 20.518000
H 6.676360 30.432500 20.496300
H 6.658330 30.406000 20.510200
H 6.624440 30.373200 20.523100
H 6.711960 30.388600 20.489300
H 6.100820 31.727100 18.805700
H 6.901990 31.418900 20.277300
H 6.396840 32.668600 18.815500
H 6.235420 31.512100 19.230700
H 6.793630 32.217900 19.674400
H 6.799790 32.204500 19.738500
H 6.810460 32.243200 19.657800
H 6.851460 32.206500 19.667400
H 6.765480 32.232000 19.678800
H 6.426300 32.684700 18.803900
H 6.462070 32.659400 18.821800
H 6.248480 31.504000 19.235000
H 6.445020 32.672700 18.886100
H 6.410930 32.660500 18.820400
H 6.072330 31.749600 18.793300
H 10.098700 32.518500 21.324300
H 10.018100 32.833600 20.441800
H 9.944440 32.847000 20.354800
H 9.970760 32.846900 20.391100
H 10.943800 32.998200 20.564700
H 10.732200 32.363800 22.128400
H 11.171900 33.178200 20.148900
H 5.956190 30.181500 19.519600
H 10.915700 33.006800 20.530700
H 10.310700 33.261100 19.479500
H 10.187200 32.526200 21.415800
H 10.755100 32.372000 22.168500
H 11.336000 32.760800 21.453400
H 10.079900 32.733400 26.108200
H 6.285830 30.691600 23.573000
H 6.233180 30.673200 23.630900
H 6.137230 31.696400 23.372900
H 6.083490 31.675000 23.416800
H 6.622470 29.613000 25.223200
H 6.601720 29.621800 25.291800
H 10.095400 32.761700 26.144000
H 10.318600 31.846900 26.504400
H 6.422860 29.921700 24.317200
H 6.463440 29.929000 24.250300
H 6.307810 31.140200 24.512000
H 6.492090 30.614400 25.342400
H 6.428770 30.762300 24.802000
H 6.557200 30.711900 25.792400
H 6.382450 31.607100 25.393100
H 10.416500 32.679900 27.091600
H 10.255400 31.017700 25.949100
H 10.258900 31.045200 25.980400
H 10.305300 31.014700 25.989600
H 10.121800 32.730600 26.137400
H 6.394100 31.595500 25.353700
H 6.265660 31.646000 24.363300
H 6.272810 32.599700 25.443800
H 6.230990 32.479200 24.915100
H 6.198180 32.132800 24.562700
H 6.359430 32.428800 25.905500
H 10.360900 31.847300 26.540600
H 9.975190 31.816800 25.351200
H 9.960230 31.784900 25.319700
H 10.012000 31.777000 25.353600
H 9.802280 32.824700 25.190000
H 9.827110 32.781200 25.183200
H 9.777990 32.790800 25.156600
H 10.381700 32.676000 27.059800
H 6.721830 29.853800 26.293500
H 6.720310 29.828200 26.231100
H 6.751000 30.555600 27.054000
H 6.730740 30.516900 27.003900
H 6.566730 31.081400 26.223500
H 6.522530 31.545100 26.344100
H 6.681420 31.539200 27.369400
H 6.650970 31.494700 27.334500
H 10.323700 31.871900 26.539200
H 10.577300 30.716600 26.909000
H 10.628400 30.698600 26.921000
H 10.584400 30.694900 26.876000
H 10.616900 31.808900 27.493100
H 10.655700 31.796700 27.494800
H 10.620500 31.789500 27.456000
H 10.388600 32.698700 27.097900
H 6.457090 32.074000 26.274200
H 6.531730 32.540900 27.155300
H 6.502370 32.499500 27.134400
H 6.342040 33.292400 26.469100
H 6.324760 33.262100 26.457200
H 6.057460 32.674200 23.703600
H 6.013900 32.658500 23.732300
H 11.006000 31.586100 28.616100
H 11.033000 31.601500 28.659000
H 10.990700 31.598500 28.655800
H 11.006000 32.578600 29.000000
H 10.985500 32.561200 28.963000
H 10.974900 32.572600 29.005800
H 10.711300 32.629300 28.045800
H 10.681800 32.635600 28.051900
H 10.683600 32.618600 28.011400
H 10.845200 30.919200 27.888300
H 10.859200 30.902900 27.852200
H 10.894800 30.913400 27.898100
H 13.829600 0.632546 21.058500
H 12.099000 1.055340 18.861800
H 12.134900 1.018670 18.886500
H 12.156600 0.976325 18.882000
H 11.493200 0.554359 19.819900
H 12.863500 0.585005 20.414000
H 12.064000 0.628525 19.815000
H 12.464400 0.714253 19.995800
H 12.497800 0.684350 20.023300
H 13.078800 1.073120 19.308200
H 13.108400 1.033680 19.285100
H 13.041900 1.115750 19.284900
H 11.524800 0.533025 19.849700
H 13.755600 0.889284 20.080100
H 13.711300 0.919229 20.113100
H 13.675300 0.960994 20.089000
H 12.858300 0.472653 20.882600
H 13.863100 0.598228 21.085500
H 13.924700 0.581824 21.054100
H 14.362700 2.916190 23.745500
H 14.354300 2.920590 23.769300
H 14.289800 2.957400 23.747900
H 13.383200 3.231880 23.858200
H 13.379200 3.254220 23.867700
H 13.317000 3.284240 23.884100
H 15.278500 2.669400 24.160400
H 15.261200 2.662870 24.196900
H 15.209800 2.691810 24.141300
H 12.597300 3.574350 24.465900
H 12.602500 3.531890 24.468300
H 12.552000 3.584780 24.513600
H 12.218000 3.795210 25.403400
H 12.229800 3.735840 25.412400
H 12.199900 3.778460 25.467700
H 13.739600 3.229040 24.800200
H 13.754200 3.202620 24.786400
H 13.704800 3.235140 24.804500
H 14.701800 2.921380 24.937400
H 14.680500 2.933370 24.964700
H 14.651200 2.938920 24.933100
H 13.146300 3.482250 25.596300
H 13.158900 3.499540 25.568000
H 13.177500 3.454600 25.563400
H 14.092700 3.186030 25.724900
H 14.099900 3.203870 25.732600
H 14.125100 3.173360 25.714500
H 15.830400 2.558650 24.959100
H 15.856900 2.550110 25.036000
H 15.885300 2.557650 24.991700
H 15.039100 2.889820 25.853500
H 15.072700 2.892120 25.865600
H 15.040900 2.908200 25.897200
H 16.020400 2.610880 26.016700
H 15.985500 2.593600 25.982100
H 15.981800 2.612520 26.061800
H 12.342900 3.857630 26.429200
H 12.354900 3.813410 26.490700
H 12.364900 3.789060 26.437400
H 12.975600 3.680250 27.308500
H 12.971700 3.677310 27.268700
H 12.938600 3.744860 27.268300
H 13.895600 3.414670 27.701900
H 13.845500 3.487140 27.696000
H 14.480500 3.136930 26.645300
H 14.460200 3.178690 26.665100
H 14.496000 3.144100 26.642700
H 13.519300 3.474370 26.500500
H 13.534100 3.433140 26.516700
H 13.548400 3.425340 26.491600
H 13.887500 3.430530 27.683600
H 14.867000 3.114830 27.570900
H 14.820500 3.153520 27.597500
H 14.868400 3.087820 27.565700
H 15.633300 2.787290 26.936200
H 15.647700 2.814820 26.960700
H 15.602500 2.833390 26.999400
H 14.526100 7.344180 22.266000
H 15.733600 9.974630 22.012600
H 15.443900 9.038830 22.213300
H 13.910500 6.568560 22.126700
H 13.887800 6.582360 22.125000
H 13.552900 7.310490 21.499500
H 13.540200 7.340740 21.512000
H 14.347200 7.721890 21.963000
H 14.381400 8.194540 21.760200
H 13.625000 8.303370 21.140700
H 13.621100 8.269280 21.115000
H 14.096600 9.188010 21.076300
H 14.636900 8.657680 21.762300
H 14.996900 8.970150 21.899500
H 14.891400 9.824050 21.429700
H 14.852200 9.820520 21.393700
H 14.119600 9.212330 21.110600
H 15.685400 9.997310 21.982200
H 14.598000 6.242270 22.828600
H 14.574800 6.231440 22.815400
H 14.864500 7.167240 22.614700
H 15.286400 7.269430 22.911200
H 15.417000 6.382020 23.398300
H 15.431100 6.419070 23.417100
H 15.671500 7.548390 23.065700
H 16.186700 7.051570 23.734500
H 16.188800 6.993740 23.717400
H 15.902000 8.045050 23.050600
H 15.757200 8.895410 22.544700
H 15.961200 8.484180 22.865000
H 16.768200 8.865330 23.316000
H 16.730400 8.929090 23.311300
H 16.683400 7.902690 23.687300
H 16.662300 7.970310 23.695800
H 15.141700 8.119790 22.405400
H 16.420600 9.623710 22.703000
H 16.372800 9.671030 22.684100
H 15.154200 8.103030 22.414000
H 11.451700 11.005400 24.025000
H 11.443000 10.946400 24.022600
H 16.078900 21.732200 10.598100
H 16.792800 21.856700 11.287100
H 16.052100 21.738400 10.595200
H 16.533200 21.804600 11.735400
H 15.612300 21.612000 12.542100
H 16.565500 21.797400 12.259100
H 15.624200 21.613600 12.542000
H 15.595500 21.625200 11.507300
H 15.575700 21.627800 11.507600
H 16.821500 21.838300 12.692300
H 16.152300 21.695200 13.421400
H 16.157300 21.700500 13.425200
H 15.641100 19.720200 22.636900
H 16.602300 19.413300 22.405000
H 14.994800 20.436100 23.013000
H 16.228600 20.483300 22.906200
H 14.836500 21.369100 23.432800
H 15.208600 22.269300 23.783500
H 15.826200 21.307800 23.304100
H 16.413700 22.070900 23.573500
H 16.816000 21.246400 23.175500
H 11.451200 27.485100 4.764820
H 11.948700 26.642100 5.101750
H 11.974800 26.670700 5.077450
H 11.716900 24.670800 4.856710
H 11.702800 24.699700 4.874900
H 12.046000 25.612000 5.135390
H 12.053700 25.639700 5.129580
H 11.487200 27.516200 4.732480
H 16.875600 27.190400 20.283000
H 16.148300 26.025500 22.047600
H 15.895100 25.998800 21.015700
H 16.141300 26.040300 22.020300
H 15.998700 26.339000 20.078000
H 16.025400 26.337100 20.046000
H 16.497400 26.964400 19.371100
H 16.459000 26.972100 19.400500
H 16.588500 26.700600 21.106200
H 16.597700 26.707400 21.080900
H 15.884900 25.992500 21.046900
H 16.011400 22.895300 23.971400
H 16.718100 26.429100 22.811800
H 16.698100 26.450300 22.790800
H 15.496600 31.606200 5.338800
H 14.706800 31.672200 4.386090
H 15.712500 31.916500 4.413030
H 13.854900 31.327100 4.862490
H 16.602400 31.994500 4.936090
H 13.385100 30.973600 5.714570
H 14.567800 31.311500 5.563530
H 13.423200 30.706500 6.714030
H 13.959100 30.597300 7.593050
H 14.352000 31.001200 6.489300
H 15.064900 30.985600 7.190340
H 15.280700 31.295900 6.264570
H 15.993700 31.280200 6.965610
H 16.706600 31.264600 7.666650
H 14.849000 30.675300 8.116110
H 15.854700 30.919500 8.143050
H 16.209500 31.590600 6.039840
H 12.890000 33.300900 20.911900
H 12.898000 29.622500 20.060400
H 12.609900 29.400000 20.423400
H 11.705200 29.300800 20.158100
H 11.666300 29.280400 20.114800
H 12.165500 29.681200 19.301200
H 12.204400 29.701400 19.344400
H 13.075300 30.059800 18.914500
H 13.036600 30.038800 18.871100
H 13.295000 29.779300 19.801500
H 13.838000 29.911700 19.880000
H 14.238600 29.898900 20.110200
H 14.084500 30.279800 18.983500
H 14.046200 30.257300 18.939600
H 14.923800 30.278200 19.488300
H 14.961700 30.302600 19.532900
H 15.434200 30.095800 20.370400
H 15.471700 30.122000 20.415500
H 11.711400 28.965200 21.137400
H 12.183200 28.761300 21.975700
H 12.221400 28.784600 22.020000
H 12.651500 29.254400 20.956900
H 12.868300 29.140500 21.353900
H 11.672800 28.943600 21.093700
H 13.345100 29.175500 21.672900
H 13.553500 29.519700 20.732000
H 13.591500 29.543600 20.776400
H 14.941400 29.358200 22.162800
H 13.811900 29.260200 21.662500
H 14.285100 29.464700 21.492400
H 14.978700 29.385800 22.208400
H 14.497100 29.639400 21.040700
H 14.531600 29.832800 20.596000
H 15.440600 29.759100 21.349300
H 15.477900 29.786400 21.394800
H 11.971400 33.134700 20.747900
H 11.887000 33.166700 20.706700
H 11.916900 33.149600 20.738300
H 11.878800 32.786900 21.680900
H 12.770900 33.091200 21.347000
H 12.309100 32.912100 21.627000
H 12.280900 32.925100 21.593500
H 13.570400 33.047700 21.946000
H 13.493400 33.050100 21.964900
H 13.463400 33.072400 21.933800
H 13.098600 28.807300 22.569400
H 13.060700 28.782100 22.524500
H 12.701300 32.674700 22.515700
H 14.107800 29.027400 22.638400
H 14.070300 29.000600 22.593000
H 11.699000 32.426500 22.590200
H 11.786200 32.439100 22.613900
H 11.675100 32.424200 22.551500
H 12.674800 32.683500 22.480300
H 16.882500 32.602300 22.577500
H 16.870000 32.504000 22.620500
H 16.853900 31.801400 23.263400
H 16.879400 31.766600 23.360100
H 12.787700 32.682900 22.516900
H 16.849700 31.836400 23.289200
H 16.825800 31.720900 23.296200
H 16.821700 31.813200 23.244800
H 16.808300 29.618900 29.257700
H 15.859500 29.677200 29.456000
H 15.869300 29.668600 29.467300
H 15.791300 29.680200 29.441400
H 15.007400 29.891900 30.083600
H 15.076600 29.870500 30.101800
H 15.070700 29.883800 30.093900
H 14.723000 30.184400 31.021500
H 14.666600 30.197100 31.012200
H 14.723000 30.168900 31.027900
H 16.292300 29.949500 30.328700
H 16.287900 29.955800 30.315500
H 15.834200 30.066500 30.618100
H 15.719200 30.199700 31.109000
H 15.719700 30.209500 31.098200
H 16.715400 30.230500 31.190100
H 16.661100 30.241000 31.152700
H 16.716400 30.234500 31.175000
H 16.888700 29.617200 29.294400
H 14.860200 30.514100 31.978500
H 14.903300 30.483800 31.997400
H 14.909300 30.498500 31.990200
H 16.554900 30.849200 33.071200
H 16.542100 30.843800 33.085800
H 16.587500 30.552100 32.100200
H 16.142200 30.480700 31.970400
H 15.569100 30.730800 32.750700
H 15.579900 30.741800 32.740400
H 15.536300 30.757900 32.723600
H 15.760600 30.377600 31.565600
H 16.148100 30.488200 31.957700
H 16.513900 30.863200 33.047700
H 16.877800 29.619900 29.278700
H 16.734700 29.930000 30.205200
H 17.460300 0.487461 22.140800
H 17.430900 0.503533 22.129700
H 18.333300 1.039260 22.037000
H 18.347200 1.010460 22.033200
H 18.320100 1.022570 22.021300
H 18.336400 0.941516 22.033400
H 18.282700 0.943719 22.045700
H 19.336800 1.161200 22.297200
H 19.329900 1.179710 22.279300
H 19.333900 1.096710 22.262800
H 19.311700 1.166310 22.281600
H 19.272600 1.107640 22.300500
H 17.444400 0.523507 22.161700
H 20.140100 0.896250 22.840600
H 20.164000 0.899292 22.862000
H 20.177800 0.847155 22.807900
H 20.107800 0.858031 22.859000
H 20.167200 0.907247 22.823800
H 16.944900 21.905900 10.058200
H 17.930500 22.107800 10.016300
H 18.856300 22.262000 10.527000
H 17.202400 21.947700 11.006300
H 17.734200 22.040500 11.004100
H 19.369000 22.350800 11.384300
H 18.159900 22.124500 11.234000
H 17.961500 22.099800 10.032100
H 18.829100 22.267600 10.504900
H 16.914100 21.914000 10.049400
H 19.389400 22.348900 11.410100
H 19.405700 22.335000 12.418700
H 18.929200 22.224400 13.331100
H 20.536300 18.785900 13.300200
H 20.595100 18.799000 13.267700
H 21.554700 18.965100 13.250000
H 18.220700 22.105800 12.665100
H 17.490700 21.981400 11.963200
H 18.448200 22.158200 12.191000
H 18.448100 22.165100 11.693100
H 17.506800 21.981200 11.976100
H 17.279400 21.921900 12.948100
H 17.779000 22.015100 12.920100
H 18.067300 22.048700 13.877000
H 19.231000 18.604100 14.717200
H 19.205500 18.593300 14.780600
H 19.676400 18.649800 13.860400
H 19.722400 18.663700 13.808000
H 20.166700 18.770000 14.992200
H 20.188100 18.775200 14.951000
H 20.832100 18.866300 14.252000
H 20.870100 18.872600 14.226200
H 21.615100 18.973800 13.241100
H 21.827200 19.043800 14.460000
H 21.793300 19.043100 14.463600
H 18.068700 22.056600 13.894000
H 17.050900 21.855000 13.910100
H 17.052100 21.862600 13.920000
H 18.934700 22.230300 13.354100
H 19.252500 18.636200 15.751700
H 19.249700 18.631500 15.814200
H 19.797200 18.754200 16.684200
H 19.781100 18.751400 16.634300
H 20.462600 18.850500 15.944000