LAMMPS (3 Mar 2020)
OMP_NUM_THREADS environment is not set. Defaulting to 1 thread. (src/comm.cpp:94)
  using 1 OpenMP thread(s) per MPI task
Reading restart file ...
  restart file = 3 Mar 2020, LAMMPS = 3 Mar 2020
  restoring atom style full from restart
  orthogonal box = (1.08266 1.08266 1.08266) to (33.9173 33.9173 33.9173)
  6 by 6 by 6 MPI processor grid
  restoring pair style hybrid/overlay from restart
  restoring bond style fene from restart
  28900 atoms
  8700 bonds
Finding 1-2 1-3 1-4 neighbors ...
  special bond factors lj:   0          1          1         
  special bond factors coul: 0          1          1         
  2 = max # of 1-2 neighbors
  6 = max # of special neighbors
  special bonds CPU = 2.44151 secs
  read_restart CPU = 2.59398 secs
Resetting global fix info from restart file:
  fix style: nvt, fix ID: pt
100 rigid bodies with 1900 atoms
Resetting global fix info from restart file:
  fix style: rigid/nvt, fix ID: ri
System init for write_data ...
PPPM initialization ...
  using 12-bit tables for long-range coulomb (src/kspace.cpp:332)
  G vector (1/distance) = 1.26818
  grid = 135 135 135
  stencil order = 5
  estimated absolute RMS force accuracy = 0.00013496
  estimated relative force accuracy = 0.00013496
  using double precision FFTW3
  3d grid and FFT values/proc = 24389 12960
All restart file global fix info was re-assigned
Unused restart file peratom fix info:
  fix style: STORE, fix ID: par_COMPUTE_STORE
WARNING: Neighbor exclusions used with KSpace solver may give inconsistent Coulombic energies (src/neighbor.cpp:486)
Neighbor list info ...
  update every 1 steps, delay 0 steps, check yes
  max neighbors/atom: 2000, page size: 100000
  master list distance cutoff = 2.8
  ghost atom cutoff = 2.8
  binsize = 1.4, bins = 24 24 24
  2 neighbor lists, perpetual/occasional/extra = 2 0 0
  (1) pair lj/cut, perpetual
      attributes: half, newton on
      pair build: half/bin/newton
      stencil: half/bin/3d/newton
      bin: standard
  (2) pair coul/long, perpetual, skip from (1)
      attributes: half, newton on
      pair build: skip
      stencil: none
      bin: none
PPPM initialization ...
  using 12-bit tables for long-range coulomb (src/kspace.cpp:332)
  G vector (1/distance) = 1.26818
  grid = 135 135 135
  stencil order = 5
  estimated absolute RMS force accuracy = 0.00013496
  estimated relative force accuracy = 0.00013496
  using double precision FFTW3
  3d grid and FFT values/proc = 24389 12960
WARNING: Neighbor exclusions used with KSpace solver may give inconsistent Coulombic energies (src/neighbor.cpp:486)
Neighbor list info ...
  update every 1 steps, delay 0 steps, check yes
  max neighbors/atom: 2000, page size: 100000
  master list distance cutoff = 2.8
  ghost atom cutoff = 2.8
  binsize = 1.4, bins = 24 24 24
  2 neighbor lists, perpetual/occasional/extra = 2 0 0
  (1) pair lj/cut, perpetual
      attributes: half, newton on
      pair build: half/bin/newton
      stencil: half/bin/3d/newton
      bin: standard
  (2) pair coul/long, perpetual, skip from (1)
      attributes: half, newton on
      pair build: skip
      stencil: none
      bin: none
Setting up Verlet run ...
  Unit style    : lj
  Current step  : 12000000
  Time step     : 0.005
Per MPI rank memory allocation (min/avg/max) = 11.38 | 11.55 | 11.76 Mbytes
Step Temp Press Volume 
12000000   0.80327741  -0.19208803    35399.607 
12010000   0.80161543 -0.069548931    35399.607 
12020000   0.80385924  -0.13657029    35399.607 
12030000   0.79736292 -0.034973611    35399.607 
12040000   0.80186698  -0.15273274    35399.607 
12050000   0.79971019  -0.10098306    35399.607 
12060000   0.79632881 -0.073569223    35399.607 
12070000   0.79577416 -0.092422013    35399.607 
12080000   0.79925353 -0.085052466    35399.607 
12090000   0.79815185  -0.10527671    35399.607 
12100000   0.80466575 -0.052534708    35399.607 
12110000   0.79675081  -0.08721632    35399.607 
12120000   0.79865692  -0.14004409    35399.607 
12130000   0.80189946 -0.054867223    35399.607 
12140000   0.80078684  -0.10965229    35399.607 
12150000   0.79699212  -0.12308964    35399.607 
12160000   0.80659196  -0.18610406    35399.607 
12170000   0.80218804 -0.039469193    35399.607 
12180000   0.80083908 -0.097328352    35399.607 
12190000    0.8031454 -0.096749364    35399.607 
12200000   0.80081926 -0.062166841    35399.607 
12210000   0.80028049 -0.081446273    35399.607 
12220000   0.79979704  -0.15907129    35399.607 
12230000   0.79921651  -0.15247593    35399.607 
12240000    0.8055281  -0.11172571    35399.607 
12250000   0.80152704 -0.094660438    35399.607 
12260000   0.80229873   -0.1427719    35399.607 
12270000   0.80156876  -0.13796989    35399.607 
12280000    0.8058074 -0.070159735    35399.607 
12290000   0.79966611  -0.08228339    35399.607 
12300000   0.80581483  -0.18502666    35399.607 
12310000   0.80169474  -0.13403843    35399.607 
12320000   0.80172998  -0.10747136    35399.607 
12330000   0.80002137  -0.11669056    35399.607 
12340000   0.79915618   -0.1714344    35399.607 
12350000   0.80066549  -0.11611658    35399.607 
12360000   0.79637422   -0.1664506    35399.607 
12370000   0.79474802 -0.030344571    35399.607 
12380000    0.8020277  -0.12429999    35399.607 
12390000   0.80448901 -0.097693637    35399.607 
12400000   0.79706581 -0.039604255    35399.607 
12410000   0.80509269  -0.11869975    35399.607 
12420000   0.80045734  -0.21449801    35399.607 
12430000   0.79646084  -0.09701697    35399.607 
12440000   0.79800595 -0.088358726    35399.607 
12450000   0.79539399  -0.13669185    35399.607 
12460000   0.80404674  -0.08448978    35399.607 
12470000   0.80404521  -0.10166154    35399.607 
12480000   0.80121799  -0.15350892    35399.607 
12490000   0.79679172   -0.1306259    35399.607 
12500000   0.79716145 -0.012921111    35399.607 
12510000   0.80616509 -0.097523426    35399.607 
12520000   0.80532606  -0.12838839    35399.607 
12530000   0.79495643 -0.072564598    35399.607 
12540000   0.80319879  -0.11554022    35399.607 
12550000   0.80246806  -0.03578832    35399.607 
12560000   0.80607212  -0.13551729    35399.607 
12570000   0.79709437 -0.046440754    35399.607 
12580000   0.80199647  -0.15033408    35399.607 
12590000   0.80370637  -0.10670049    35399.607 
12600000   0.80096106    -0.122387    35399.607 
12610000   0.80215351  -0.12460679    35399.607 
12620000   0.80255079   -0.1498556    35399.607 
12630000   0.80003282  -0.10079433    35399.607 
12640000   0.80321992  -0.10267052    35399.607 
12650000   0.79762784  -0.16387074    35399.607 
12660000   0.80158161  -0.16939554    35399.607 
12670000   0.79390845  -0.10950233    35399.607 
12680000   0.79896243  -0.15417811    35399.607 
12690000   0.80710978 -0.053874341    35399.607 
12700000   0.79904131 -0.086863234    35399.607 
12710000    0.8105198 -0.034029253    35399.607 
12720000   0.80536842  -0.11314842    35399.607 
12730000   0.80036509  -0.12812712    35399.607 
12740000   0.80238533 -0.099662314    35399.607 
12750000   0.80289514 -0.058334002    35399.607 
12760000    0.7955511 -0.073584201    35399.607 
12770000   0.80678797  -0.13137097    35399.607 
12780000   0.79653836  -0.18166473    35399.607 
12790000   0.79695141  -0.12260687    35399.607 
12800000   0.80332499 -0.074138634    35399.607 
12810000   0.79545535  -0.13713275    35399.607 
12820000   0.80164135  -0.18752541    35399.607 
12830000   0.80818527 -0.052929758    35399.607 
12840000   0.80937002 -0.045330406    35399.607 
12850000   0.79895073 -0.044110949    35399.607 
12860000   0.79586216  -0.15616529    35399.607 
12870000   0.80271343  -0.11744924    35399.607 
12880000   0.80242921  -0.13048478    35399.607 
12890000   0.80007014  -0.15147939    35399.607 
12900000   0.79612211  -0.15262006    35399.607 
12910000   0.79360623   -0.1578015    35399.607 
12920000   0.80038232  -0.11409468    35399.607 
12930000   0.79121564  -0.19257048    35399.607 
12940000   0.80036166  -0.15135281    35399.607 
12950000   0.80199942  -0.11494261    35399.607 
12960000   0.80610147  -0.11174093    35399.607 
12970000   0.79317662  -0.14229109    35399.607 
12980000   0.80203345 -0.053201124    35399.607 
12990000    0.7989358  -0.16304983    35399.607 
13000000   0.80271079  -0.06800888    35399.607 
Loop time of 20672.2 on 216 procs for 1000000 steps with 28900 atoms

Performance: 20897.643 tau/day, 48.374 timesteps/s
99.8% CPU use with 216 MPI tasks x 1 OpenMP threads

MPI task timing breakdown:
Section |  min time  |  avg time  |  max time  |%varavg| %total
---------------------------------------------------------------
Pair    | 163.21     | 285.23     | 469.41     | 389.6 |  1.38
Bond    | 0.86978    | 2.3055     | 4.3098     |  46.3 |  0.01
Kspace  | 18914      | 19221      | 19397      |  60.0 | 92.98
Neigh   | 169.15     | 176.15     | 183.31     |  25.8 |  0.85
Comm    | 292.13     | 391.21     | 574.9      | 279.2 |  1.89
Output  | 0.011595   | 0.013893   | 0.024862   |   1.0 |  0.00
Modify  | 418.69     | 485.67     | 573.55     | 196.9 |  2.35
Other   |            | 110.1      |            |       |  0.53

Nlocal:    133.796 ave 248 max 2 min
Histogram: 8 0 1 12 51 85 33 20 5 1
Nghost:    975.333 ave 1318 max 343 min
Histogram: 6 2 0 12 12 41 53 48 32 10
Neighs:    5358.27 ave 16733 max 16 min
Histogram: 8 17 93 47 25 20 3 2 0 1

Total # of neighbors = 1157386
Ave neighs/atom = 40.048
Ave special neighs/atom = 0.602076
Neighbor list builds = 134247
Dangerous builds = 0
PPPM initialization ...
  using 12-bit tables for long-range coulomb (src/kspace.cpp:332)
  G vector (1/distance) = 1.26818
  grid = 135 135 135
  stencil order = 5
  estimated absolute RMS force accuracy = 0.00013496
  estimated relative force accuracy = 0.00013496
  using double precision FFTW3
  3d grid and FFT values/proc = 24389 12960
WARNING: Neighbor exclusions used with KSpace solver may give inconsistent Coulombic energies (src/neighbor.cpp:486)
Neighbor list info ...
  update every 1 steps, delay 0 steps, check yes
  max neighbors/atom: 2000, page size: 100000
  master list distance cutoff = 2.8
  ghost atom cutoff = 2.8
  binsize = 1.4, bins = 24 24 24
  7 neighbor lists, perpetual/occasional/extra = 2 5 0
  (1) pair lj/cut, perpetual
      attributes: half, newton on
      pair build: half/bin/newton
      stencil: half/bin/3d/newton
      bin: standard
  (2) pair coul/long, perpetual, skip from (1)
      attributes: half, newton on
      pair build: skip
      stencil: none
      bin: none
  (3) compute rdf, occasional, copy from (1)
      attributes: half, newton on
      pair build: copy
      stencil: none
      bin: none
  (4) compute rdf, occasional, copy from (1)
      attributes: half, newton on
      pair build: copy
      stencil: none
      bin: none
  (5) compute rdf, occasional, copy from (1)
      attributes: half, newton on
      pair build: copy
      stencil: none
      bin: none
  (6) compute rdf, occasional, copy from (1)
      attributes: half, newton on
      pair build: copy
      stencil: none
      bin: none
  (7) compute rdf, occasional, copy from (1)
      attributes: half, newton on
      pair build: copy
      stencil: none
      bin: none
Setting up Verlet run ...
  Unit style    : lj
  Current step  : 0
  Time step     : 0.005
Per MPI rank memory allocation (min/avg/max) = 17.02 | 20.58 | 21.32 Mbytes
Step Temp Press PotEng KinEng E_pair E_bond TotEng 
       0   0.80271079   0.28906786    4.4512805    1.1331971   -1.7600885     6.211369    5.5844776 
   10000   0.79612729  -0.02075382    4.4502014    1.1239031   -1.7576595    6.2078609    5.5741045 
   20000   0.80581524 -0.028500245    4.4608552    1.1375797   -1.7524928    6.2133479    5.5984349 
   30000   0.80092074 -0.061782044     4.461725    1.1306701   -1.7516736    6.2133986    5.5923951 
   40000   0.80152829 -0.084065657    4.4506266    1.1315277   -1.7640643    6.2146909    5.5821544 
   50000   0.80140082 -0.012726422    4.4652436    1.1313478   -1.7482801    6.2135236    5.5965914 
   60000   0.80250485 -0.083625857    4.4664381    1.1329064   -1.7452398    6.2116779    5.5993444 
   70000   0.80407475 -0.071307256    4.4554099    1.1351226   -1.7541158    6.2095256    5.5905325 
   80000   0.79778463  -0.10596905    4.4612482    1.1262428   -1.7505961    6.2118443     5.587491 
   90000   0.80647448 -0.073539531     4.464396    1.1385104   -1.7466585    6.2110546    5.6029064 
  100000   0.79748279  -0.13808111     4.453993    1.1258167   -1.7565631    6.2105561    5.5798097 
  110000   0.80108567  -0.17093039    4.4724792    1.1309029   -1.7384645    6.2109437    5.6033821 
  120000   0.80327094  -0.12167197     4.459004    1.1339879   -1.7547476    6.2137516    5.5929919 
  130000   0.80126051  -0.12317452    4.4609841    1.1311497     -1.75375    6.2147341    5.5921338 
  140000   0.80888055 -0.057135731    4.4637576     1.141907   -1.7466285    6.2103862    5.6056647 
  150000   0.80099787  -0.16570848    4.4472313    1.1307789   -1.7629767    6.2102079    5.5780102 
  160000   0.79980462 -0.092351249    4.4558244    1.1290944   -1.7575206     6.213345    5.5849188 
  170000   0.80389327  -0.10250643    4.4541048    1.1348664   -1.7537092     6.207814    5.5889712 
  180000   0.80133081 -0.083331039    4.4580477     1.131249   -1.7524116    6.2104593    5.5892966 
  190000   0.80333913 -0.025676534      4.45861    1.1340841   -1.7553091    6.2139191    5.5926941 
  200000    0.8017091  -0.13312109    4.4417864     1.131783   -1.7693395    6.2111259    5.5735694 
  210000   0.79977214  -0.14769909    4.4604361    1.1290486   -1.7469609    6.2073969    5.5894846 
  220000   0.80532146  -0.16494443    4.4568942    1.1368826   -1.7550329    6.2119271    5.5937768 
  230000    0.7968553 -0.094072671    4.4406619    1.1249308   -1.7688706    6.2095325    5.5655928 
  240000   0.78862585  -0.14369312    4.4654778    1.1133132   -1.7467396    6.2122174    5.5787911 
  250000   0.79874926  -0.11106623    4.4665433    1.1276046   -1.7437019    6.2102452    5.5941478 
  260000   0.80094902  -0.07006546    4.4627721      1.13071   -1.7505292    6.2133013    5.5934821 
  270000   0.80290751  -0.16337306    4.4642977    1.1334748    -1.747301    6.2115987    5.5977725 
  280000   0.79555928  -0.11535774    4.4560432    1.1231012    -1.754111    6.2101542    5.5791444 
  290000   0.79937054  -0.11290349     4.450067    1.1284816   -1.7604374    6.2105044    5.5785486 
  300000    0.7964685  -0.11659963    4.4594482    1.1243848   -1.7522162    6.2116644     5.583833 
  310000   0.79751211 -0.081657304    4.4618228    1.1258581   -1.7522415    6.2140643    5.5876809 
  320000   0.79623383 -0.061184128    4.4567179    1.1240535   -1.7552841     6.212002    5.5807714 
  330000   0.79880925 -0.057174545    4.4538407    1.1276893   -1.7608142    6.2146549    5.5815299 
  340000   0.81684389  -0.12554424    4.4717417     1.153149   -1.7392662    6.2110079    5.6248907 
  350000   0.80448678  -0.11596759    4.4572807    1.1357043   -1.7530989    6.2103795    5.5929849 
  360000   0.80594831    -0.193642    4.4748776    1.1377675   -1.7392906    6.2141682    5.6126452 
  370000   0.79834675  -0.10798075    4.4513204    1.1270363   -1.7622616     6.213582    5.5783567 
  380000    0.7994489  -0.18019402     4.450321    1.1285922   -1.7602446    6.2105656    5.5789133 
  390000   0.80072093 -0.035616132    4.4577788     1.130388   -1.7574463    6.2152252    5.5881668 
  400000   0.80595602  -0.15331165    4.4582736    1.1377784   -1.7517072    6.2099807     5.596052 
  410000   0.79421523     -0.06618    4.4699611    1.1212038   -1.7413882    6.2113493    5.5911649 
  420000   0.80475619 -0.077745831    4.4672888    1.1360846   -1.7435774    6.2108663    5.6033734 
  430000   0.79579802 -0.091634301    4.4680783    1.1234383   -1.7442245    6.2123028    5.5915166 
  440000   0.80837949 -0.020246459    4.4493433    1.1411997    -1.762381    6.2117243    5.5905429 
  450000   0.79950576 -0.051455788    4.4495463    1.1286725   -1.7619731    6.2115194    5.5782188 
  460000   0.79588128 -0.058428194     4.462259    1.1235558   -1.7488523    6.2111113    5.5858148 
  470000   0.79915214  -0.10439028    4.4589917    1.1281733   -1.7542551    6.2132468     5.587165 
  480000   0.80838808 -0.079809377    4.4497624    1.1412118   -1.7620972    6.2118596    5.5909742 
  490000   0.80465472 -0.045416233    4.4590181    1.1359414   -1.7527375    6.2117556    5.5949595 
  500000   0.80423561 -0.046837186    4.4712349    1.1353497   -1.7393977    6.2106326    5.6065846 
  510000   0.80533656 -0.078975302    4.4674288    1.1369039   -1.7475003    6.2149291    5.6043327 
  520000   0.79917832 -0.071542738     4.467522    1.1282103   -1.7450153    6.2125373    5.5957323 
  530000   0.79640523 -0.083533501     4.452378    1.1242955   -1.7585619      6.21094    5.5766735 
  540000   0.79376958 -0.086756326    4.4550103    1.1205747   -1.7547807     6.209791     5.575585 
  550000   0.79760765  -0.12011064    4.4640736    1.1259929   -1.7468025    6.2108762    5.5900666 
  560000   0.79388983 -0.035602598    4.4639117    1.1207444   -1.7492891    6.2132008    5.5846561 
  570000   0.80125897 -0.073054379    4.4547089    1.1311476   -1.7559375    6.2106464    5.5858565 
  580000   0.79874067 -0.099037391    4.4582591    1.1275924   -1.7524664    6.2107255    5.5858515 
  590000   0.79384331 -0.062590974    4.4636057    1.1206788   -1.7476365    6.2112422    5.5842844 
  600000   0.80409457  -0.12491168    4.4831311    1.1351506   -1.7313122    6.2144432    5.6182817 
  610000   0.80251152 -0.059697055    4.4666727    1.1329158   -1.7474352    6.2141078    5.5995885 
  620000    0.7961368 -0.060123626    4.4684718    1.1239165   -1.7439726    6.2124445    5.5923883 
  630000   0.80429312  -0.10728547    4.4622609    1.1354309   -1.7472933    6.2095542    5.5976918 
  640000   0.80477321  -0.10151143    4.4585081    1.1361087   -1.7532752    6.2117833    5.5946167 
  650000   0.79350317  -0.12038482    4.4650271    1.1201986   -1.7471604    6.2121875    5.5852257 
  660000   0.79936851   -0.1545049    4.4536085    1.1284788   -1.7598109    6.2134194    5.5820873 
  670000   0.79674637 -0.077896365    4.4592208     1.124777   -1.7528805    6.2121014    5.5839979 
  680000   0.80568555 -0.087397853    4.4597848    1.1373966   -1.7526872     6.212472    5.5971814 
  690000   0.80498412   0.01906861    4.4543366    1.1364064   -1.7641481    6.2184847     5.590743 
  700000    0.7970892 -0.095785942    4.4534836     1.125261   -1.7598687    6.2133523    5.5787446 
  710000   0.79764058  -0.11661019    4.4562456    1.1260394   -1.7569312    6.2131768     5.582285 
  720000   0.79558894  -0.16587093    4.4556521    1.1231431   -1.7551468     6.210799    5.5787952 
  730000   0.79916781  -0.12055397    4.4555315    1.1281954    -1.754497    6.2100286     5.583727 
  740000   0.80110206 -0.059362826    4.4662834     1.130926   -1.7428747    6.2091581    5.5972095 
  750000      0.80066  -0.17030554     4.463352     1.130302    -1.749341     6.212693     5.593654 
  760000    0.8030233 -0.048422227    4.4410148    1.1336383   -1.7715463    6.2125611     5.574653 
  770000   0.79497625  -0.11955534    4.4586167    1.1222781   -1.7559267    6.2145434    5.5808949 
  780000   0.79453288  -0.10077158    4.4644408    1.1216522   -1.7477798    6.2122206    5.5860931 
  790000   0.79820796 -0.074529529     4.470712    1.1268404   -1.7428718    6.2135838    5.5975524 
  800000    0.8021657  -0.11264056    4.4519238    1.1324276   -1.7606955    6.2126193    5.5843514 
  810000   0.79805746 -0.069601998    4.4740104    1.1266279    -1.736594    6.2106045    5.6006384 
  820000   0.79730655 -0.086872007    4.4622845    1.1255679   -1.7480685    6.2103531    5.5878524 
  830000   0.79847667  -0.14299369    4.4605626    1.1272197    -1.749932    6.2104946    5.5877823 
  840000   0.80169858 -0.076088262    4.4558169    1.1317681   -1.7539911    6.2098079     5.587585 
  850000   0.79948514  -0.06790874    4.4587261    1.1286434   -1.7581071    6.2168332    5.5873695 
  860000   0.80555885  -0.11573098    4.4637728    1.1372177   -1.7481816    6.2119544    5.6009905 
  870000   0.80428516   -0.1242494    4.4623853    1.1354197   -1.7503977    6.2127831     5.597805 
  880000   0.79922671  -0.16318869    4.4474647    1.1282786    -1.764886    6.2123507    5.5757433 
  890000   0.80454537  -0.16710134    4.4627802     1.135787   -1.7480083    6.2107884    5.5985672 
  900000   0.80266269 -0.096441775    4.4520295    1.1331292   -1.7618613    6.2138907    5.5851587 
  910000   0.79971574  -0.22370093    4.4499662     1.128969   -1.7608552    6.2108215    5.5789352 
  920000   0.79641859  -0.14466996    4.4662454    1.1243143   -1.7431813    6.2094267    5.5905598 
  930000   0.79552184 -0.079775589    4.4573898    1.1230484   -1.7537937    6.2111835    5.5804381 
  940000   0.80505273  -0.11519994    4.4640387    1.1365033   -1.7453564    6.2093951    5.6005419 
  950000   0.79577207 -0.092293694    4.4619953    1.1234016   -1.7488286    6.2108239     5.585397 
  960000   0.80542117  -0.11373312    4.4591032    1.1370234   -1.7515666    6.2106698    5.5961266 
  970000   0.80192472  -0.10844227    4.4682365    1.1320874   -1.7441527    6.2123892    5.6003239 
  980000   0.80012332  -0.18910319    4.4655238    1.1295443   -1.7464985    6.2120223    5.5950682 
  990000   0.80866285 -0.076579437    4.4622064    1.1415997    -1.751867    6.2140734    5.6038061 
 1000000   0.79794821  -0.12796894    4.4663234    1.1264737   -1.7442425    6.2105659    5.5927971 
 1010000   0.80838913 -0.030570687    4.4708275    1.1412133   -1.7411444    6.2119719    5.6120408 
 1020000   0.79773352 -0.011738839     4.455498    1.1261706   -1.7587681    6.2142661    5.5816686 
 1030000   0.80246856   -0.1598523    4.4547573    1.1328551     -1.75733    6.2120874    5.5876125 
 1040000    0.8023569  -0.10756924    4.4722757    1.1326975   -1.7435702    6.2158459    5.6049732 
 1050000   0.79848542  -0.14074636     4.445383    1.1272321    -1.765356     6.210739    5.5726151 
 1060000   0.80084252  -0.17281178    4.4502645    1.1305596   -1.7601398    6.2104042    5.5808241 
 1070000   0.80520317  -0.08766554    4.4519734    1.1367156    -1.758928    6.2109014    5.5886891 
 1080000   0.79680247  -0.15120556    4.4624891    1.1248562   -1.7496597    6.2121487    5.5873453 
 1090000   0.79421739  -0.17080334    4.4559091    1.1212069   -1.7531534    6.2090625     5.577116 
 1100000   0.79942594  -0.12536297    4.4618621    1.1285598    -1.748495     6.210357    5.5904219 
 1110000   0.80364305  -0.16326825    4.4742645    1.1345132   -1.7358043    6.2100688    5.6087777 
 1120000   0.80026762  -0.14101552    4.4519655     1.129748   -1.7558635     6.207829    5.5817135 
 1130000   0.80115189  -0.10873186    4.4464093    1.1309964   -1.7638841    6.2102934    5.5774057 
 1140000   0.80118531  -0.14725473    4.4504878    1.1310436   -1.7583162     6.208804    5.5815314 
 1150000    0.7969965 -0.096780111    4.4641609    1.1251302   -1.7481255    6.2122864    5.5892911 
 1160000   0.80353426    -0.180868      4.44612    1.1343596   -1.7663346    6.2124545    5.5804796 
 1170000   0.80007022  -0.11751881    4.4782636    1.1294694   -1.7355216    6.2137852     5.607733 
 1180000    0.7990183  -0.11285464    4.4692741    1.1279844   -1.7411605    6.2104347    5.5972585 
 1190000   0.79745455 -0.059693365    4.4542603    1.1257768   -1.7593811    6.2136414    5.5800371 
 1200000   0.80188338  -0.14321363    4.4679205     1.132029   -1.7436579    6.2115784    5.5999495 
 1210000   0.79164828   -0.1518241     4.459569      1.11758   -1.7514965    6.2110654     5.577149 
 1220000    0.8000374  -0.10219114     4.466934     1.129423   -1.7417541     6.208688     5.596357 
 1230000   0.80353947  -0.10252582    4.4674863     1.134367   -1.7446381    6.2121244    5.6018533 
 1240000    0.8005918 -0.032010611    4.4667792    1.1302057     -1.74677    6.2135491    5.5969848 
 1250000    0.8030309  -0.12317299    4.4770712     1.133649   -1.7340599    6.2111311    5.6107202 
 1260000   0.80396338  -0.17394108     4.454069    1.1349654   -1.7574881    6.2115571    5.5890344 
 1270000    0.7986252  -0.07154658    4.4521797    1.1274294   -1.7617048    6.2138846    5.5796091 
 1280000   0.80056509  -0.13716809    4.4694004     1.130168   -1.7413901    6.2107905    5.5995684 
 1290000   0.80107143  -0.13173623    4.4587147    1.1308828   -1.7535348    6.2122495    5.5895975 
 1300000    0.7960369    -0.143143    4.4670669    1.1237755   -1.7464367    6.2135036    5.5908424 
 1310000   0.80072734  -0.05989229    4.4784021     1.130397   -1.7363502    6.2147524    5.6087992 
 1320000   0.79875958 -0.044325254    4.4639067    1.1276191   -1.7506368    6.2145435    5.5915258 
 1330000   0.79697335 -0.095912734    4.4645226    1.1250975   -1.7472748    6.2117974    5.5896201 
 1340000   0.80538609  -0.10207862    4.4657374    1.1369739    -1.744256    6.2099934    5.6027112 
 1350000   0.80315165  -0.14310123    4.4505714    1.1338195   -1.7607704    6.2113418    5.5843909 
 1360000   0.79396567 -0.084890489    4.4627636    1.1208515   -1.7492456    6.2120092    5.5836152 
 1370000    0.8034495  -0.09507027    4.4606281    1.1342399   -1.7463112    6.2069393    5.5948681 
 1380000   0.80176747   -0.1166506    4.4745284    1.1318654   -1.7402812    6.2148096    5.6063938 
 1390000   0.80042493 -0.079538574    4.4614144    1.1299701   -1.7497275    6.2111419    5.5913845 
 1400000   0.80269861  -0.10401745    4.4605993    1.1331799   -1.7509385    6.2115379    5.5937792 
 1410000   0.80200481 -0.091156379    4.4518157    1.1322005   -1.7592964    6.2111122    5.5840162 
 1420000   0.80052845  -0.10629531    4.4569312    1.1301163   -1.7560497    6.2129809    5.5870475 
 1430000   0.79748364  -0.12409283    4.4613837    1.1258179   -1.7503519    6.2117356    5.5872016 
 1440000   0.80203629  -0.11530134    4.4523151    1.1322449   -1.7562447    6.2085598      5.58456 
 1450000   0.80826965  -0.10958487    4.4722883    1.1410446   -1.7427894    6.2150777    5.6133329 
 1460000   0.80613917 -0.075412399     4.444079     1.138037   -1.7646985    6.2087775     5.582116 
 1470000   0.79668021 -0.029480855    4.4562303    1.1246836   -1.7583625    6.2145929     5.580914 
 1480000   0.79493787  -0.15299801    4.4684332     1.122224   -1.7416888     6.210122    5.5906572 
 1490000   0.80269152  -0.14975403    4.4647726    1.1331699   -1.7444832    6.2092558    5.5979424 
 1500000   0.80969368 -0.063970242    4.4675675    1.1430549   -1.7450065     6.212574    5.6106224 
 1510000   0.79637275  -0.13158219    4.4372317    1.1242496   -1.7754156    6.2126473    5.5614813 
 1520000   0.79637548  -0.15427409    4.4677755    1.1242535   -1.7450522    6.2128278     5.592029 
 1530000   0.80270421 -0.085378794    4.4569728    1.1331878    -1.752516    6.2094889    5.5901607 
 1540000   0.79863728 -0.099529912     4.449869    1.1274465   -1.7615057    6.2113747    5.5773155 
 1550000   0.80008134 -0.096154972    4.4491135    1.1294851   -1.7604987    6.2096122    5.5785986 
 1560000   0.80679951  -0.11468135    4.4622041    1.1389692    -1.748502    6.2107061    5.6011733 
 1570000   0.79745367  -0.16259983     4.463591    1.1257756   -1.7470201     6.210611    5.5893665 
 1580000   0.80691119 -0.051489876    4.4579319    1.1391269   -1.7517498    6.2096817    5.5970588 
 1590000    0.7993198 -0.097396004     4.462304      1.12841   -1.7503126    6.2126166    5.5907139 
 1600000   0.79768056  -0.10950436    4.4715691    1.1260959   -1.7401823    6.2117514     5.597665 
 1610000   0.79778887  -0.12298162     4.458411    1.1262488   -1.7517088    6.2101197    5.5846597 
 1620000   0.80625006  -0.11618613    4.4529466    1.1381935   -1.7585467    6.2114933    5.5911401 
 1630000   0.79350575 -0.055698996     4.460994    1.1202022   -1.7516656    6.2126595    5.5811962 
 1640000   0.79999175  -0.11096079     4.460967    1.1293586   -1.7546956    6.2156626    5.5903256 
 1650000   0.80152099  -0.17492697    4.4560683    1.1315174    -1.755361    6.2114292    5.5875857 
 1660000   0.79772664 -0.063542451    4.4553997    1.1261609   -1.7532539    6.2086536    5.5815606 
 1670000   0.80023081  -0.16772304     4.452543    1.1296961   -1.7570659    6.2096089    5.5822391 
 1680000   0.79615605  -0.11907907    4.4602938    1.1239437   -1.7515604    6.2118542    5.5842375 
 1690000   0.80287484  -0.19499188    4.4482833    1.1334287   -1.7633029    6.2115862     5.581712 
 1700000   0.80083415 -0.096368751    4.4668892    1.1305478   -1.7448541    6.2117433    5.5974371 
 1710000   0.80125861  -0.12151573    4.4582626     1.131147   -1.7552396    6.2135022    5.5894097 
 1720000   0.80003001  -0.13441018    4.4547305    1.1294126    -1.756074    6.2108044    5.5841431 
 1730000   0.80540581  -0.09812348    4.4538129    1.1370017   -1.7609332    6.2147461    5.5908146 
 1740000   0.79884235  -0.15159063    4.4729439     1.127736   -1.7386297    6.2115736    5.6006799 
 1750000   0.79651744  -0.13211295     4.449349    1.1244539   -1.7587405    6.2080895    5.5738028 
 1760000     0.805884  -0.19550378    4.4604396    1.1376768   -1.7505826    6.2110222    5.5981164 
 1770000   0.79977732 -0.076280911    4.4656347    1.1290559   -1.7450638    6.2106985    5.5946906 
 1780000   0.79720899  -0.03262637    4.4633271    1.1254301   -1.7503296    6.2136567    5.5887572 
 1790000   0.79808081 -0.095728254    4.4546554    1.1266609    -1.759843    6.2144983    5.5813163 
 1800000   0.81011814  -0.05065245    4.4643561    1.1436541   -1.7517937    6.2161497    5.6080102 
 1810000   0.80278218  -0.19296435    4.4646786    1.1332979   -1.7462864    6.2109651    5.5979765 
 1820000   0.79822284 -0.097205198    4.4617951    1.1268614    -1.751001    6.2127961    5.5886565 
 1830000   0.80282695  -0.12895637    4.4583682    1.1333611   -1.7518151    6.2101832    5.5917293 
 1840000    0.8023767  -0.08426006    4.4539965    1.1327255   -1.7580445    6.2120411     5.586722 
 1850000   0.80369902  -0.10688932    4.4595627    1.1345922   -1.7535979    6.2131606    5.5941549 
 1860000   0.80185852   -0.1695464    4.4474095    1.1319939   -1.7623632    6.2097727    5.5794035 
 1870000   0.80700663  -0.14088314    4.4741527    1.1392616   -1.7414224     6.215575    5.6134142 
 1880000   0.79651627  -0.20043871    4.4535338    1.1244522    -1.754127    6.2076607     5.577986 
 1890000   0.79845527 -0.042031936    4.4706813    1.1271895   -1.7420197     6.212701    5.5978708 
 1900000   0.79810685  -0.21267539    4.4504321    1.1266977   -1.7608208    6.2112529    5.5771298 
 1910000   0.79941322 -0.078346519    4.4760814    1.1285419   -1.7391913    6.2152727    5.6046233 
 1920000   0.79998137 -0.078523104    4.4688463    1.1293439   -1.7453581    6.2142045    5.5981903 
 1930000   0.79625498  -0.11051619    4.4677254    1.1240833   -1.7452508    6.2129761    5.5918087 
 1940000   0.79872022 -0.089908042    4.4638659    1.1275636   -1.7481405    6.2120064    5.5914295 
 1950000   0.80629641  -0.12786533    4.4684768     1.138259   -1.7432673    6.2117441    5.6067358 
 1960000    0.8047175  -0.14136626    4.4605183      1.13603    -1.751132    6.2116503    5.5965483 
 1970000   0.80433296  -0.14780193    4.4672178    1.1354871   -1.7457584    6.2129762     5.602705 
 1980000   0.80149594  -0.14054525    4.4536523    1.1314821   -1.7572466    6.2108989    5.5851344 
 1990000   0.79739329 -0.085103882    4.4632889    1.1256903   -1.7492111    6.2125001    5.5889793 
 2000000   0.80028256 -0.070005937    4.4558688    1.1297691   -1.7537677    6.2096364    5.5856379 
 2010000   0.80153082  -0.17791833    4.4505755    1.1315313   -1.7585624    6.2091379    5.5821068 
 2020000   0.79349322  -0.10009452    4.4729919    1.1201845   -1.7360291     6.209021    5.5931764 
 2030000   0.79683575  -0.16328427    4.4527532    1.1249032   -1.7584944    6.2112476    5.5776564 
 2040000   0.79520327  -0.11011422    4.4685328    1.1225986   -1.7424778    6.2110106    5.5911314 
 2050000   0.79884953  -0.14282881    4.4706415    1.1277461   -1.7404944    6.2111359    5.5983877 
 2060000   0.80077068 -0.089345014    4.4502035    1.1304582   -1.7617422    6.2119458    5.5806618 
 2070000   0.79992441 -0.076503522    4.4755152    1.1292635   -1.7351572    6.2106724    5.6047788 
 2080000    0.8009976  -0.11531934    4.4458074    1.1307786   -1.7680305    6.2138378     5.576586 
 2090000   0.79430201 -0.096187788     4.463812    1.1213263   -1.7499825    6.2137946    5.5851384 
 2100000   0.80080933 -0.092144319    4.4649283    1.1305128   -1.7523968    6.2173251    5.5954411 
 2110000   0.79690756  -0.13185503    4.4711728    1.1250046   -1.7392411    6.2104139    5.5961774 
 2120000   0.79718475  -0.09391189    4.4647516    1.1253959   -1.7463671    6.2111187    5.5901475 
 2130000   0.80493647  -0.11774833    4.4691283    1.1363391   -1.7427827     6.211911    5.6054674 
 2140000   0.79954162 -0.060355017    4.4719056    1.1287231   -1.7452675    6.2171731    5.6006287 
 2150000   0.79830604  -0.14494433    4.4629915    1.1269789   -1.7500016     6.212993    5.5899703 
 2160000   0.80365763  -0.14040758    4.4622475    1.1345338    -1.744417    6.2066645    5.5967812 
 2170000   0.80820621 -0.065488681     4.470671    1.1409551   -1.7451203    6.2157913    5.6116261 
 2180000   0.80663463 -0.099932715    4.4686631    1.1387364   -1.7451641    6.2138273    5.6073996 
 2190000    0.8054578 -0.013681684    4.4402056    1.1370751   -1.7685571    6.2087627    5.5772807 
 2200000   0.79959373 -0.092061505    4.4557154    1.1287967   -1.7534623    6.2091778    5.5845121 
 2210000   0.80152125  -0.11559775    4.4679061    1.1315178   -1.7432285    6.2111345    5.5994239 
 2220000   0.79616727 -0.095788188    4.4742309    1.1239595   -1.7390193    6.2132502    5.5981904 
 2230000   0.79926351  -0.21141405    4.4733026    1.1283305   -1.7373811    6.2106836    5.6016331 
 2240000   0.80130423  -0.12397741    4.4641315    1.1312114   -1.7487759    6.2129074    5.5953429 
 2250000   0.80070665 -0.032459895    4.4694981    1.1303678   -1.7440078    6.2135059     5.599866 
 2260000   0.80292103  -0.13832986    4.4606273    1.1334939   -1.7494034    6.2100307    5.5941212 
 2270000   0.80662367  -0.10124734    4.4553801     1.138721   -1.7566495    6.2120297    5.5941011 
 2280000   0.80019631  -0.15015225    4.4635388    1.1296474   -1.7468252     6.210364    5.5931862 
 2290000   0.79993275  -0.17525079    4.4541864    1.1292753   -1.7576163    6.2118027    5.5834617 
 2300000   0.80021399  -0.12889639    4.4601276    1.1296723    -1.751876    6.2120035    5.5897999 
 2310000    0.7958294  -0.15650491    4.4705645    1.1234826   -1.7406284     6.211193    5.5940471 
 2320000   0.80514531  -0.12209549     4.480323    1.1366339   -1.7340249    6.2143479    5.6169569 
 2330000   0.79926307   -0.1005621    4.4532263    1.1283299   -1.7551185    6.2083448    5.5815562 
 2340000   0.79444358   -0.0819386    4.4627061    1.1215262   -1.7496914    6.2123975    5.5842323 
 2350000   0.80083344  -0.10679894      4.45036    1.1305468   -1.7637209    6.2140809    5.5809068 
 2360000   0.80303358  -0.11626626    4.4752572    1.1336528   -1.7346617    6.2099189    5.6089099 
 2370000   0.80149108  -0.15389177    4.4641076    1.1314752   -1.7468118    6.2109194    5.5955828 
 2380000   0.79826535  -0.12233318    4.4576402    1.1269214   -1.7540481    6.2116883    5.5845616 
 2390000   0.79801339 -0.097052909    4.4568583    1.1265657    -1.754157    6.2110154     5.583424 
 2400000   0.79867319  -0.15723933    4.4783381    1.1274972   -1.7350505    6.2133886    5.6058353 
 2410000   0.79558044  -0.11519794    4.4654111    1.1231311   -1.7462683    6.2116794    5.5885422 
 2420000   0.80012857 -0.043273408    4.4551668    1.1295517   -1.7586918    6.2138586    5.5847185 
 2430000   0.79758637 -0.070105421    4.4514215    1.1259629   -1.7579709    6.2093924    5.5773844 
 2440000   0.79692463 -0.059260724    4.4342159    1.1250287   -1.7763125    6.2105285    5.5592446 
 2450000   0.79585436  -0.11038236    4.4647804    1.1235178   -1.7498887    6.2146691    5.5882982 
 2460000   0.80017617 -0.077700546    4.4529414    1.1296189   -1.7608672    6.2138085    5.5825603 
 2470000   0.80212534  -0.11984058    4.4424105    1.1323706   -1.7708308    6.2132413    5.5747811 
 2480000   0.79881175  -0.14579826    4.4641991    1.1276928     -1.74471    6.2089091    5.5918919 
 2490000   0.80164021  -0.16478889    4.4510099    1.1316857   -1.7597046    6.2107146    5.5826957 
 2500000   0.79722674 -0.090790409    4.4546863    1.1254552    -1.758202    6.2128883    5.5801415 
 2510000   0.79761765    -0.139255     4.471839     1.126007   -1.7415664    6.2134054     5.597846 
 2520000    0.8010944  -0.04577667    4.4616882    1.1309152   -1.7514658     6.213154    5.5926034 
 2530000    0.8056305  -0.12906766    4.4560051    1.1373189   -1.7549033    6.2109084     5.593324 
 2540000   0.79743373  -0.10202961    4.4576639    1.1257474   -1.7529808    6.2106448    5.5834114 
 2550000   0.79916141 -0.095730661    4.4596737    1.1281864   -1.7529531    6.2126269    5.5878601 
 2560000   0.80720221  -0.15771835    4.4539994    1.1395377   -1.7567581    6.2107575    5.5935371 
 2570000   0.80580589 -0.062823759    4.4688863    1.1375665   -1.7427408    6.2116271    5.6064528 
 2580000   0.80051156  -0.16148608    4.4592331    1.1300924   -1.7520991    6.2113322    5.5893255 
 2590000   0.79702909  -0.14994267     4.468207    1.1251762   -1.7448053    6.2130122    5.5933831 
 2600000   0.80667185  -0.15428696    4.4667004     1.138789   -1.7442402    6.2109406    5.6054893 
 2610000   0.79942594  -0.10584288    4.4509078    1.1285598   -1.7611938    6.2121015    5.5794676 
 2620000   0.80248421 -0.026560963    4.4481674    1.1328772   -1.7641615    6.2123289    5.5810446 
 2630000    0.7996994  -0.16968079    4.4455043    1.1289459   -1.7658158    6.2113201    5.5744501 
 2640000   0.80026126  -0.10512498    4.4512208    1.1297391   -1.7616455    6.2128663    5.5809599 
 2650000   0.79876865  -0.10081467    4.4495966    1.1276319   -1.7636832    6.2132798    5.5772285 
 2660000   0.80170855 -0.078807866    4.4668768    1.1317822   -1.7481601    6.2150369     5.598659 
 2670000   0.79954731  -0.13029631    4.4628839    1.1287312   -1.7506916    6.2135755     5.591615 
 2680000   0.80373084  -0.11500691    4.4631768    1.1346371   -1.7477761    6.2109529    5.5978139 
 2690000    0.8006871 -0.089723844    4.4666203    1.1303402    -1.744707    6.2113273    5.5969605 
 2700000   0.79806922  -0.11120687     4.468278    1.1266445   -1.7435118    6.2117899    5.5949225 
 2710000   0.79377033   -0.1206503    4.4669996    1.1205757   -1.7469986    6.2139982    5.5875753 
 2720000   0.80066303 -0.051067203    4.4480331    1.1303062   -1.7634076    6.2114407    5.5783393 
 2730000    0.8025761   -0.1521231     4.461212     1.133007   -1.7481523    6.2093643     5.594219 
 2740000    0.7991405 -0.073702535    4.4437016    1.1281569   -1.7646203    6.2083219    5.5718585 
 2750000   0.79790163  -0.08443261    4.4632028    1.1264079   -1.7460002     6.209203    5.5896107 
 2760000   0.80133804 -0.076208522       4.4513    1.1312592   -1.7627175    6.2140175    5.5825592 
 2770000   0.79893944  -0.12070374    4.4603494     1.127873   -1.7493561    6.2097054    5.5882224 
 2780000   0.79871126 -0.064689878     4.456913    1.1275509   -1.7537449    6.2106579    5.5844639 
 2790000   0.79290548  -0.13306722    4.4782054    1.1193548   -1.7322713    6.2104767    5.5975602 
 2800000   0.79150083  -0.14598419    4.4694513    1.1173719   -1.7426028    6.2120541    5.5868231 
 2810000   0.80345969  -0.14674672    4.4520935    1.1342543   -1.7609448    6.2130383    5.5863479 
 2820000   0.79840175  -0.11933746    4.4514818     1.127114   -1.7579068    6.2093885    5.5785958 
 2830000   0.80128223 -0.061090744    4.4656839    1.1311804   -1.7464134    6.2120973    5.5968642 
 2840000   0.80727365  -0.13376773    4.4483945    1.1396385   -1.7618286    6.2102231    5.5880331 
 2850000   0.79848514  -0.15675747    4.4771571    1.1272317   -1.7351942    6.2123513    5.6043888 
 2860000   0.80205017 -0.092290542     4.460757    1.1322645   -1.7518661    6.2126231    5.5930215 
 2870000   0.79931564  -0.15291063    4.4554929    1.1284041   -1.7546123    6.2101053    5.5838971 
 2880000   0.79855946  -0.16323991     4.472116    1.1273366   -1.7385567    6.2106727    5.5994526 
 2890000    0.7973778  -0.13926463    4.4583642    1.1256685   -1.7547577    6.2131218    5.5840326 
 2900000   0.79470574 -0.077906546     4.466279    1.1218963   -1.7464336    6.2127126    5.5881753 
 2910000   0.80501371 -0.086531116    4.4598093    1.1364482    -1.752039    6.2118484    5.5962575 
 2920000   0.79990964  -0.16086565    4.4744572    1.1292427   -1.7352513    6.2097085    5.6036998 
 2930000   0.80559353 -0.094104603    4.4673756    1.1372667   -1.7437117    6.2110873    5.6046423 
 2940000   0.80240424  -0.13524566    4.4534632    1.1327643   -1.7573408     6.210804    5.5862275 
 2950000   0.79308037  -0.20866692    4.4488424    1.1196017   -1.7620678    6.2109103    5.5684441 
 2960000   0.80309439  -0.14978502    4.4685669    1.1337386   -1.7389068    6.2074737    5.6023055 
 2970000   0.80398834 -0.059721226    4.4597436    1.1350006   -1.7518517    6.2115952    5.5947442 
 2980000   0.80090141  -0.10729566    4.4479044    1.1306428   -1.7615374    6.2094418    5.5785472 
 2990000   0.80070637  -0.11611903    4.4573213    1.1303674   -1.7542473    6.2115686    5.5876888 
 3000000   0.80221559  -0.13868681    4.4735842     1.132498   -1.7370511    6.2106353    5.6060823 
 3010000   0.79684926   -0.1698837    4.4544407    1.1249223   -1.7543589    6.2087996     5.579363 
 3020000   0.80022248 -0.091013348    4.4637158    1.1296843   -1.7489691     6.212685    5.5934002 
 3030000   0.79815318  -0.12712263    4.4606518    1.1267631   -1.7528082      6.21346    5.5874149 
 3040000    0.8040914 -0.068057429    4.4523033    1.1351461   -1.7570176    6.2093209    5.5874494 
 3050000    0.8049362  -0.12096293    4.4570937    1.1363387   -1.7521781    6.2092718    5.5934324 
 3060000   0.79914804  -0.11739954    4.4513692    1.1281675   -1.7606882    6.2120574    5.5795367 
 3070000   0.80146636  -0.10894103    4.4581043    1.1314403   -1.7516293    6.2097336    5.5895446 
 3080000   0.79877763  -0.15910921    4.4660631    1.1276446   -1.7455095    6.2115726    5.5937077 
 3090000   0.80198682 -0.060464336     4.450254    1.1321751     -1.76125    6.2115041    5.5824291 
 3100000   0.80610742  -0.10390917    4.4751744    1.1379922   -1.7357918    6.2109663    5.6131666 
 3110000   0.79985757  -0.13327563    4.4753572    1.1291692   -1.7377507    6.2131079    5.6045264 
 3120000   0.80231926 -0.080667383    4.4639055    1.1326444   -1.7445367    6.2084422    5.5965498 
 3130000   0.79857914  -0.16605769    4.4642596    1.1273644   -1.7476026    6.2118622     5.591624 
 3140000   0.80130426  -0.04855276    4.4571069    1.1312115   -1.7542512    6.2113581    5.5883184 
 3150000   0.80931959  -0.10787257    4.4595528    1.1425268   -1.7505381    6.2100909    5.6020797 
 3160000   0.80271528 -0.061169972    4.4638026    1.1332034   -1.7476452    6.2114478     5.597006 
 3170000    0.7997765 -0.097344623    4.4741582    1.1290547   -1.7377772    6.2119354    5.6032129 
 3180000   0.80202811 -0.095435202    4.4589081    1.1322334   -1.7547705    6.2136786    5.5911414 
 3190000   0.79981359  -0.20687999    4.4633426    1.1291071    -1.749372    6.2127146    5.5924497 
 3200000   0.79137317 -0.099885499    4.4618373    1.1171916   -1.7502207     6.212058     5.579029 
 3210000   0.79850947  -0.13212434    4.4700078     1.127266   -1.7400317    6.2100395    5.5972738 
 3220000   0.79686045  -0.11838963     4.455741    1.1249381   -1.7580184    6.2137594    5.5806791 
 3230000   0.79891048   -0.1795269    4.4577549    1.1278321    -1.751277    6.2090319     5.585587 
 3240000   0.79958588  -0.10337683    4.4444472    1.1287856   -1.7666741    6.2111214    5.5732329 
 3250000   0.79887522  -0.18243967    4.4720273    1.1277824   -1.7414121    6.2134395    5.5998097 
 3260000   0.80471786  -0.14884754    4.4639863    1.1360305   -1.7483349    6.2123212    5.6000168 
 3270000   0.79829574 -0.080978435    4.4569785    1.1269643   -1.7552613    6.2122397    5.5839428 
 3280000   0.79972751 -0.067020274     4.467927    1.1289856   -1.7436259    6.2115529    5.5969126 
 3290000   0.80209583   -0.1844946    4.4656593     1.132329   -1.7457072    6.2113665    5.5979882 
 3300000   0.80582339   -0.1034199    4.4650907    1.1375912   -1.7437506    6.2088413    5.6026819 
 3310000    0.7998416  -0.04073127    4.4650369    1.1291466    -1.747688    6.2127249    5.5941836 
 3320000   0.80235811  -0.12576092     4.454727    1.1326992   -1.7578328    6.2125598    5.5874262 
 3330000   0.80106679 -0.078557897    4.4618842    1.1308762   -1.7504107    6.2122948    5.5927604 
 3340000    0.8052155 -0.022240763    4.4652999     1.136733   -1.7452629    6.2105628    5.6020329 
 3350000   0.79612413  -0.12989636    4.4622433    1.1238986   -1.7499625    6.2122059    5.5861419 
 3360000   0.79336062  -0.18908177    4.4658533    1.1199974   -1.7458606    6.2117139    5.5858506 
 3370000   0.79868002 -0.071588181    4.4594063    1.1275068   -1.7486127    6.2080191    5.5869131 
 3380000    0.8006283 -0.062548404    4.4469497    1.1302572   -1.7622975    6.2092471    5.5772069 
 3390000    0.8052831 -0.073213489    4.4624411    1.1368285   -1.7453101    6.2077512    5.5992695 
 3400000   0.80248029  -0.16159056     4.456954    1.1328717   -1.7513706    6.2083246    5.5898257 
 3410000   0.80303891 -0.057970932    4.4567155    1.1336603   -1.7558849    6.2126004    5.5903758 
 3420000   0.80058402  -0.10236173    4.4507663    1.1301947   -1.7564097     6.207176     5.580961 
 3430000   0.79990163   -0.1547407    4.4497299    1.1292314   -1.7576504    6.2073802    5.5789613 
 3440000   0.80085942  -0.13892813    4.4721909    1.1305835   -1.7419173    6.2141082    5.6027744 
 3450000   0.80379107 -0.057612525    4.4583745    1.1347221    -1.750983    6.2093575    5.5930967 
 3460000   0.80018635 -0.085619266    4.4610415    1.1296333   -1.7537927    6.2148342    5.5906748 
 3470000   0.80035918  -0.17522931    4.4606846    1.1298773   -1.7520412    6.2127258    5.5905619 
 3480000   0.80390781  -0.07246405    4.4645127    1.1348869   -1.7467998    6.2113125    5.5993997 
 3490000   0.79865177  -0.16515682    4.4543882    1.1274669   -1.7575264    6.2119146    5.5818551 
 3500000   0.79910576 -0.053357509    4.4600738    1.1281078   -1.7501291    6.2102029    5.5881816 
 3510000    0.7979646  -0.10751729    4.4741907    1.1264968   -1.7364356    6.2106264    5.6006876 
 3520000   0.79935672 -0.082863989     4.459171    1.1284621   -1.7526581    6.2118291    5.5876331 
 3530000   0.80479981 -0.070036777     4.454749    1.1361462   -1.7555151    6.2102641    5.5908952 
 3540000   0.80212524 -0.098645725    4.4536028    1.1323705    -1.757412    6.2110148    5.5859733 
 3550000   0.79481913 -0.074761362    4.4608062    1.1220563   -1.7508562    6.2116624    5.5828625 
 3560000   0.80390997  -0.06862745    4.4516606      1.13489   -1.7584157    6.2100763    5.5865506 
 3570000    0.7943289   -0.1544395    4.4570358    1.1213643   -1.7540171    6.2110529       5.5784 
 3580000   0.79676102 -0.082209685    4.4666077    1.1247977   -1.7439014    6.2105091    5.5914055 
 3590000   0.80287976  -0.14037194     4.459255    1.1334356   -1.7492935    6.2085485    5.5926906 
 3600000   0.80493736 -0.089500917    4.4585654    1.1363404   -1.7519226    6.2104879    5.5949057 
 3610000   0.79898796  -0.13351358    4.4578657    1.1279415   -1.7517856    6.2096513    5.5858072 
 3620000     0.796216 -0.091612931    4.4553552    1.1240283     -1.75617    6.2115252    5.5793836 
 3630000   0.79806511 -0.047636414    4.4529556    1.1266387   -1.7611375    6.2140931    5.5795943 
 3640000   0.79783615  -0.13985404    4.4635414    1.1263155   -1.7481967    6.2117382    5.5898569 
 3650000   0.80246013 -0.077862982    4.4643371    1.1328432   -1.7503707    6.2147077    5.5971803 
 3660000   0.79934519   -0.1546165    4.4612765    1.1284458     -1.75144    6.2127165    5.5897223 
 3670000   0.79800618  -0.16271897    4.4667248    1.1265555   -1.7479835    6.2147084    5.5932804 
 3680000   0.80003406  -0.11648716    4.4734778    1.1294183   -1.7351849    6.2086627    5.6028961 
 3690000   0.79733423 -0.084448106    4.4484157    1.1256069   -1.7600314    6.2084471    5.5740227 
 3700000   0.80151244  -0.21119899    4.4611272    1.1315054   -1.7519663    6.2130935    5.5926326 
 3710000   0.80072356    -0.105697    4.4558941    1.1303917   -1.7549645    6.2108586    5.5862858 
 3720000   0.79756226 -0.075571492     4.459539    1.1259289   -1.7528595    6.2123986    5.5854679 
 3730000   0.79665695  -0.11888282    4.4568322    1.1246508   -1.7561251    6.2129573     5.581483 
 3740000   0.79722847  -0.13234397    4.4536875    1.1254576   -1.7568124    6.2104999    5.5791452 
 3750000    0.8055675  -0.10751856    4.4673574      1.13723   -1.7449516     6.212309    5.6045873 
 3760000   0.79853063 -0.077217269    4.4523577    1.1272959   -1.7608238    6.2131814    5.5796536 
 3770000   0.80188557  -0.10486709     4.457027    1.1320321   -1.7543986    6.2114256    5.5890592 
 3780000   0.80511953  -0.12776009    4.4511447    1.1365975   -1.7594629    6.2106076    5.5877422 
 3790000   0.79546286  -0.11123867    4.4560513    1.1229651   -1.7535612    6.2096125    5.5790164 
 3800000   0.80345074 -0.066159426    4.4665486    1.1342417   -1.7447841    6.2113327    5.6007903 
 3810000   0.79980577  -0.10006636    4.4753904     1.129096   -1.7371292    6.2125196    5.6044864 
 3820000   0.80182346  -0.13049494    4.4429255    1.1319444   -1.7669774    6.2099029    5.5748699 
 3830000    0.8000342 -0.068617269    4.4525119    1.1294185   -1.7600848    6.2125967    5.5819304 
 3840000   0.79347413  -0.14836167    4.4560318    1.1201576   -1.7565375    6.2125693    5.5761894 
 3850000   0.80235095  -0.13445149    4.4702136    1.1326891   -1.7426238    6.2128375    5.6029027 
 3860000   0.79604351 -0.072185095    4.4437839    1.1237848   -1.7658495    6.2096334    5.5675687 
 3870000    0.8007522  -0.12877456    4.4493642    1.1304321   -1.7598133    6.2091775    5.5797963 
 3880000   0.80301027 -0.056170115    4.4614193    1.1336199   -1.7509447    6.2123641    5.5950392 
 3890000    0.8040443 -0.062539632    4.4477082    1.1350796   -1.7668459    6.2145541    5.5827878 
 3900000   0.80440798  -0.03396124    4.4611545     1.135593   -1.7488033    6.2099578    5.5967475 
 3910000   0.80383044  -0.11984761    4.4641828    1.1347777   -1.7485839    6.2127667    5.5989606 
 3920000   0.80457889 -0.073987956    4.4562199    1.1358343    -1.754949    6.2111689    5.5920543 
 3930000   0.79613601  -0.12024073    4.4628302    1.1239154   -1.7469736    6.2098038    5.5867456 
 3940000   0.80527227  -0.11987001     4.443077    1.1368132   -1.7664039    6.2094809    5.5798902 
 3950000   0.79949428  -0.13871572    4.4600311    1.1286563   -1.7531171    6.2131482    5.5886874 
 3960000   0.79656535  -0.11847362     4.456108    1.1245215   -1.7536653    6.2097733    5.5806295 
 3970000   0.79323896  -0.14222553    4.4662085    1.1198256   -1.7489049    6.2151134    5.5860341 
 3980000   0.80309829  -0.13101838    4.4600005    1.1337441   -1.7542902    6.2142906    5.5937446 
 3990000    0.8049564  -0.11927464    4.4750827    1.1363673   -1.7374771    6.2125598      5.61145 
 4000000     0.792614 -0.076816374    4.4648365    1.1189433   -1.7450673    6.2099038    5.5837798 
 4010000   0.80217457 -0.083710878    4.4704423    1.1324401   -1.7447243    6.2151666    5.6028824 
 4020000   0.79626711   -0.1451806    4.4632028    1.1241005   -1.7469798    6.2101826    5.5873033 
 4030000   0.80283485  -0.13933672    4.4544642    1.1333722   -1.7582726    6.2127368    5.5878364 
 4040000   0.79991734  -0.13574138    4.4465861    1.1292536   -1.7637379     6.210324    5.5758396 
 4050000   0.80466951 -0.083686367    4.4611645    1.1359623   -1.7521831    6.2133476    5.5971267 
 4060000   0.79173267  -0.11479047    4.4509759    1.1176991    -1.758066     6.209042    5.5686751 
 4070000    0.7878703 -0.076974678    4.4557748    1.1122466   -1.7551507    6.2109254    5.5680214 
 4080000   0.79743109 -0.066726908    4.4701444    1.1257437     -1.74638    6.2165244     5.595888 
 4090000   0.79942465  -0.07592111    4.4511906     1.128558   -1.7642336    6.2154242    5.5797486 
 4100000   0.80118614 -0.090924693    4.4592838    1.1310447   -1.7558846    6.2151684    5.5903285 
 4110000    0.7977046  -0.12855993    4.4658863    1.1261298   -1.7463406    6.2122269    5.5920161 
 4120000   0.79780035  -0.10223194    4.4572416     1.126265   -1.7550368    6.2122784    5.5835066 
 4130000   0.79787174  -0.06341881    4.4618612    1.1263658   -1.7531444    6.2150055    5.5882269 
 4140000   0.79928322 -0.076098046    4.4597957    1.1283584   -1.7491374     6.208933     5.588154 
 4150000   0.80263765  -0.14957223    4.4767781    1.1330939   -1.7361889     6.212967     5.609872 
 4160000   0.80700834 -0.065349828    4.4698335     1.139264   -1.7431133    6.2129468    5.6090975 
 4170000   0.80357291 -0.080622584    4.4594046    1.1344142   -1.7525201    6.2119247    5.5938188 
 4180000   0.79387816   -0.1354271    4.4528115     1.120728    -1.758864    6.2116755    5.5735395 
 4190000   0.79815429 -0.098099574     4.459488    1.1267646   -1.7495731    6.2090611    5.5862526 
 4200000   0.79700565   -0.1080117    4.4383938    1.1251431   -1.7721159    6.2105097    5.5635368 
 4210000    0.8002052  -0.11611598     4.445268    1.1296599    -1.763913     6.209181    5.5749279 
 4220000   0.79630505 -0.096572763    4.4493939     1.124154   -1.7633222     6.212716    5.5735479 
 4230000    0.8003762  -0.10367502    4.4588511    1.1299013   -1.7510625    6.2099137    5.5887524 
 4240000   0.79927101  -0.11873891    4.4702708    1.1283411    -1.744159    6.2144298    5.5986119 
 4250000   0.79648473  -0.13316275      4.44609    1.1244077   -1.7636475    6.2097375    5.5704977 
 4260000   0.80599127  -0.15037745    4.4580508    1.1378282   -1.7568397    6.2148905     5.595879 
 4270000   0.79735783 -0.061382211    4.4650051    1.1256403   -1.7496226    6.2146277    5.5906454 
 4280000   0.79290466 -0.051484893    4.4546435    1.1193537   -1.7586956    6.2133391    5.5739971 
 4290000   0.80097823 -0.080588996    4.4755143    1.1307512   -1.7392039    6.2147183    5.6062656 
 4300000   0.79334098  -0.13284629    4.4643668    1.1199696   -1.7494894    6.2138562    5.5843364 
 4310000   0.79907692  -0.15494964    4.4561391    1.1280671   -1.7526494    6.2087885    5.5842062 
 4320000   0.79782281   -0.1246844    4.4727899    1.1262967   -1.7363976    6.2091876    5.5990866 
 4330000   0.79698857   -0.1225774    4.4581151     1.125119   -1.7550769     6.213192     5.583234 
 4340000    0.7993283  -0.14299938    4.4660378     1.128422    -1.744545    6.2105828    5.5944598 
 4350000   0.79967534  -0.12890745    4.4778965    1.1289119   -1.7343292    6.2122257    5.6068084 
 4360000    0.8018717  -0.13466281    4.4530896    1.1320125   -1.7600778    6.2131674    5.5851022 
 4370000   0.80453784  -0.13813349    4.4639765    1.1357764   -1.7491682    6.2131447    5.5997529 
 4380000   0.80100106  -0.20011113    4.4761898    1.1307835    -1.732256    6.2084458    5.6069733 
 4390000   0.79393807 -0.041566858    4.4531581    1.1208125   -1.7599247    6.2130828    5.5739706 
 4400000   0.80016528  -0.15815931    4.4618424    1.1296036   -1.7504441    6.2122866     5.591446 
 4410000   0.80575036  -0.14973821    4.4601569    1.1374881   -1.7509435    6.2111004     5.597645 
 4420000   0.80400279 -0.052373945    4.4629963     1.135021   -1.7508858    6.2138821    5.5980174 
 4430000   0.79725162 -0.060185006    4.4452438    1.1254903    -1.768858    6.2141019    5.5707342 
 4440000   0.80151571 -0.062102287    4.4632176      1.13151   -1.7521684     6.215386    5.5947276 
 4450000    0.7988367 -0.048937869    4.4351297     1.127728   -1.7776237    6.2127534    5.5628577 
 4460000   0.79296532  -0.18566303    4.4530695    1.1194393   -1.7583476    6.2114171    5.5725088 
 4470000   0.79468481  -0.10006684     4.453101    1.1218667   -1.7575722    6.2106732    5.5749677 
 4480000   0.80822167  -0.10171876    4.4455779    1.1409769   -1.7625148    6.2080928    5.5865548 
 4490000   0.79862677  -0.14970684    4.4543614    1.1274316    -1.753939    6.2083004     5.581793 
 4500000   0.80239849  -0.13460551    4.4563955    1.1327562   -1.7545832    6.2109787    5.5891518 
 4510000   0.79184624 -0.088846731    4.4517239    1.1178595   -1.7579607    6.2096846    5.5695834 
 4520000   0.79280496 -0.086796597    4.4785928    1.1192129   -1.7295077    6.2081004    5.5978057 
 4530000   0.81496966 -0.031133694    4.4582282    1.1505031   -1.7549528    6.2131811    5.6087314 
 4540000   0.79749207  -0.10126985    4.4610667    1.1258298    -1.750397    6.2114637    5.5868964 
 4550000   0.79582993  -0.11950188    4.4480273    1.1234833   -1.7643735    6.2124008    5.5715106 
 4560000   0.79613216  -0.12726291    4.4527711      1.12391   -1.7572969     6.210068    5.5766811 
 4570000   0.80279806  -0.12131405    4.4515279    1.1333203   -1.7606026    6.2121305    5.5848482 
 4580000   0.81066583  -0.15911513    4.4674177    1.1444273   -1.7460743    6.2134919     5.611845 
 4590000   0.80292282 -0.052101989    4.4717533    1.1334964   -1.7389774    6.2107307    5.6052497 
 4600000   0.79758941  -0.10097587    4.4415518    1.1259672   -1.7707321    6.2122839     5.567519 
 4610000   0.80462212  -0.10776592    4.4483958    1.1358954   -1.7652791    6.2136749    5.5842912 
 4620000    0.7921316  -0.12307608    4.4481783    1.1182623   -1.7645391    6.2127173    5.5664406 
 4630000   0.80358705  -0.12346672    4.4536711    1.1344341   -1.7601382    6.2138093    5.5881052 
 4640000   0.80395622 -0.0019411671     4.461385    1.1349553   -1.7500425    6.2114276    5.5963403 
 4650000   0.78913209  -0.19492106    4.4351279    1.1140279   -1.7749593    6.2100871    5.5491557 
 4660000   0.79893354 -0.047463874    4.4388916    1.1278647   -1.7723218    6.2112134    5.5667563 
 4670000   0.80760743 -0.096939982    4.4534959    1.1401098   -1.7552082     6.208704    5.5936056 
 4680000   0.79248361  -0.11351992    4.4435692    1.1187593   -1.7688099    6.2123791    5.5623285 
 4690000   0.79934765 -0.085876666    4.4758575    1.1284493   -1.7401745     6.216032    5.6043069 
 4700000   0.79495065 -0.066619508    4.4540629     1.122242   -1.7607045    6.2147674    5.5763049 
 4710000   0.80087166  -0.15401433    4.4555381    1.1306008   -1.7558235    6.2113616    5.5861389 
 4720000   0.80298445  -0.11948677    4.4532788    1.1335834   -1.7616983    6.2149771    5.5868623 
 4730000   0.80526297  -0.03992667    4.4525455       1.1368   -1.7591935     6.211739    5.5893456 
 4740000   0.79625366 -0.058551069    4.4687176    1.1240815   -1.7422734     6.210991    5.5927991 
 4750000   0.80039346  -0.09109812    4.4438619    1.1299257   -1.7681446    6.2120065    5.5737876 
 4760000    0.8010693  -0.13355417    4.4522431    1.1308798   -1.7561733    6.2084164    5.5831229 
 4770000   0.80169221 -0.044443366    4.4763925    1.1317592   -1.7363236     6.212716    5.6081516 
 4780000   0.80117621  -0.11309654      4.44403    1.1310307   -1.7685474    6.2125774    5.5750607 
 4790000   0.80075252 -0.044511196    4.4634215    1.1304326   -1.7497942    6.2132157    5.5938541 
 4800000   0.79788017  -0.17420588    4.4631561    1.1263776   -1.7472585    6.2104146    5.5895337 
 4810000   0.80167969  -0.15822191    4.4691602    1.1317415   -1.7412774    6.2104376    5.6009017 
 4820000   0.80235243 -0.098046495     4.456498    1.1326912    -1.755593     6.212091    5.5891892 
 4830000   0.79285366  -0.11061432    4.4568584    1.1192817   -1.7574275    6.2142859    5.5761401 
 4840000   0.79731996 -0.066078125    4.4451935    1.1255868   -1.7680841    6.2132776    5.5707803 
 4850000    0.7942838  -0.15260085    4.4576644    1.1213006    -1.753589    6.2112535    5.5789651 
 4860000   0.79782595  -0.13573614    4.4595986    1.1263011   -1.7542487    6.2138473    5.5858997 
 4870000   0.79948885  -0.11735857     4.459772    1.1286486   -1.7513097    6.2110816    5.5884206 
 4880000   0.79932034 -0.061809992    4.4498529    1.1284108   -1.7651017    6.2149546    5.5782636 
 4890000    0.7981564  -0.11178489     4.460989    1.1267676   -1.7483794    6.2093684    5.5877566 
 4900000   0.80304359 -0.093718162     4.457734    1.1336669   -1.7532561    6.2109901    5.5914009 
 4910000   0.79933056 -0.076623253    4.4697111    1.1284252   -1.7414512    6.2111623    5.5981363 
 4920000   0.80262711  -0.11551352    4.4806728     1.133079   -1.7341073    6.2147801    5.6137518 
 4930000   0.80902436  -0.13134789     4.457602      1.14211   -1.7532903    6.2108923    5.5997121 
 4940000    0.7978955  -0.12383074    4.4563944    1.1263993   -1.7520952    6.2084897    5.5827937 
 4950000   0.80589131  -0.14624262    4.4581665    1.1376871   -1.7523359    6.2105024    5.5958535 
 4960000   0.80637194  -0.10681028    4.4623157    1.1383656    -1.747785    6.2101007    5.6006813 
 4970000   0.80056008  -0.10677854    4.4570338    1.1301609    -1.755516    6.2125498    5.5871947 
 4980000   0.80263417   -0.0846901    4.4496612    1.1330889   -1.7628776    6.2125387    5.5827501 
 4990000   0.79953768  -0.11310112    4.4536786    1.1287176    -1.757046    6.2107246    5.5823962 
 5000000   0.80104268  -0.18606562    4.4705026    1.1308422   -1.7414956    6.2119982    5.6013448 
 5010000   0.80328079   -0.1215867    4.4787707    1.1340018   -1.7315811    6.2103518    5.6127725 
 5020000   0.80033423  -0.14116326    4.4579236    1.1298421   -1.7562179    6.2141415    5.5877657 
 5030000   0.80006284 -0.047300241    4.4642377    1.1294589   -1.7483274    6.2125651    5.5936966 
 5040000   0.80672904  -0.13649666    4.4661508    1.1388697   -1.7467923    6.2129432    5.6050206 
 5050000   0.80109133  -0.13322122    4.4458316    1.1309109    -1.765427    6.2112586    5.5767425 
 5060000   0.79774284  -0.11834394    4.4540429    1.1261838   -1.7531627    6.2072055    5.5802267 
 5070000   0.79315223  -0.10352452    4.4599553    1.1197032   -1.7497334    6.2096887    5.5796585 
 5080000   0.80266936 -0.091596652    4.4678239    1.1331386   -1.7468727    6.2146965    5.6009625 
 5090000   0.79258447  -0.13101486    4.4450638    1.1189016   -1.7645097    6.2095736    5.5639655 
 5100000   0.80294805 -0.097753189    4.4550661     1.133532   -1.7559179     6.210984    5.5885981 
 5110000   0.79297954 -0.056772025    4.4505534    1.1194594   -1.7613346     6.211888    5.5700128 
 5120000   0.79989993  -0.17498846    4.4623098     1.129229    -1.744791    6.2071008    5.5915388 
 5130000   0.79707791  -0.14022241    4.4655456    1.1252451   -1.7430928    6.2086384    5.5907907 
 5140000   0.80035381 -0.082144301     4.455247    1.1298697   -1.7584506    6.2136976    5.5851167 
 5150000   0.80641851  -0.14721534    4.4642446    1.1384313   -1.7494058    6.2136504     5.602676 
 5160000   0.79377363  -0.14184208    4.4562131    1.1205804    -1.753662    6.2098751    5.5767935 
 5170000     0.787255 -0.036543153    4.4742617     1.111378   -1.7362221    6.2104838    5.5856397 
 5180000   0.80337655 -0.073124434    4.4619254     1.134137   -1.7505306    6.2124559    5.5960623 
 5190000   0.79913062 -0.052071279    4.4540806    1.1281429   -1.7568765    6.2109571    5.5822235 
 5200000   0.80227727  -0.12028489    4.4886506    1.1325851   -1.7250991    6.2137496    5.6212357 
 5210000   0.80099556  -0.10052018    4.4585774    1.1307757   -1.7557862    6.2143636    5.5893531 
 5220000    0.7940291  -0.13959681    4.4724586     1.120941   -1.7395166    6.2119753    5.5933997 
 5230000   0.78914998  -0.10453483    4.4543919    1.1140531   -1.7556725    6.2100644     5.568445 
 5240000    0.7980377  -0.11414452    4.4548352       1.1266   -1.7551004    6.2099356    5.5814352 
 5250000   0.80825818 -0.054493901    4.4707267    1.1410284   -1.7404838    6.2112105    5.6117552 
 5260000   0.79799415 -0.094146758    4.4439144    1.1265386    -1.770935    6.2148494     5.570453 
 5270000   0.79944946   -0.1319001    4.4457111     1.128593    -1.764877    6.2105881    5.5743041 
 5280000    0.7922474  -0.15887006    4.4567591    1.1184258   -1.7533488    6.2101079    5.5751849 
 5290000   0.80774657  -0.13830168    4.4606632    1.1403062   -1.7533447    6.2140078    5.6009693 
 5300000   0.79984536  -0.11771115    4.4700216    1.1291519    -1.741641    6.2116626    5.5991735 
 5310000   0.80217534  -0.12887927    4.4882703    1.1324412   -1.7271097      6.21538    5.6207115 
 5320000   0.79675894 -0.056059395    4.4542171    1.1247948   -1.7569502    6.2111673    5.5790119 
 5330000   0.80199524   -0.1391252    4.4604958    1.1321869   -1.7465084    6.2070043    5.5926828 
 5340000   0.79581294  -0.15351466    4.4662752    1.1234593   -1.7454248       6.2117    5.5897345 
 5350000   0.79914374  -0.02326769    4.4596316    1.1281614   -1.7503806    6.2100123    5.5877931 
 5360000   0.80203766 -0.065192824    4.4666418    1.1322468   -1.7476524    6.2142942    5.5988886 
 5370000   0.79680677  -0.19441601    4.4561069    1.1248623   -1.7519851     6.208092    5.5809692 
 5380000   0.80337842 -0.083039377    4.4528051    1.1341396   -1.7566547    6.2094599    5.5869447 
 5390000   0.79978431  -0.16861489    4.4573787    1.1290657   -1.7534473     6.210826    5.5864444 
 5400000   0.79979374 -0.082255869    4.4704372    1.1290791   -1.7422269     6.212664    5.5995162 
 5410000   0.80211648  -0.10166381    4.4544275    1.1323581    -1.758101    6.2125285    5.5867856 
 5420000   0.79570077  -0.04615967     4.454699     1.123301    -1.753739    6.2084381        5.578 
 5430000   0.79862694 -0.099092805    4.4507925    1.1274319   -1.7621787    6.2129711    5.5782244 
 5440000   0.80094081  -0.16010047    4.4495574    1.1306984   -1.7606793    6.2102367    5.5802558 
 5450000   0.79832677  -0.13258528    4.4571112    1.1270081   -1.7540596    6.2111708    5.5841193 
 5460000   0.79953329  -0.12547097    4.4638114    1.1287114   -1.7503251    6.2141366    5.5925228 
 5470000   0.80087858  -0.10037039    4.4622826    1.1306105   -1.7499771    6.2122597    5.5928931 
 5480000   0.79746152 -0.088484094    4.4555518    1.1257866   -1.7592292     6.214781    5.5813385 
 5490000   0.80221881 -0.087597416    4.4665578    1.1325026   -1.7457067    6.2122646    5.5990604 
 5500000   0.79772482 -0.041640347     4.471951    1.1261583   -1.7402318    6.2121828    5.5981094 
 5510000   0.79809338 -0.079681127    4.4635184    1.1266786   -1.7481106     6.211629     5.590197 
 5520000   0.79871456 -0.088742269    4.4660656    1.1275556   -1.7479662    6.2140318    5.5936212 
 5530000   0.79438247  -0.18589292    4.4582929    1.1214399   -1.7533792     6.211672    5.5797328 
 5540000   0.79544422 -0.093852862    4.4606746    1.1229388   -1.7532181    6.2138927    5.5836134 
 5550000   0.79606875  -0.07052593      4.46946    1.1238205   -1.7439668    6.2134267    5.5932804 
 5560000   0.79844016 -0.078785493    4.4607117    1.1271682   -1.7514273     6.212139    5.5878799 
 5570000   0.80224111  -0.13388585    4.4714969     1.132534   -1.7405489    6.2120458     5.604031 
 5580000   0.80059735  -0.10633037    4.4588028    1.1302135   -1.7524171    6.2112199    5.5890164 
 5590000   0.79720304 -0.053094676    4.4713731    1.1254217   -1.7405771    6.2119502    5.5967948 
 5600000   0.80292045  -0.11659548     4.447605    1.1334931   -1.7616041     6.209209     5.581098 
 5610000   0.79405002 -0.093461819    4.4514243    1.1209706   -1.7576221    6.2090464    5.5723949 
 5620000   0.79387778  -0.12537502    4.4701645    1.1207274   -1.7432704    6.2134349    5.5908919 
 5630000   0.79278544 -0.098823891    4.4615664    1.1191854   -1.7466594    6.2082259    5.5807518 
 5640000   0.80237861  -0.13915866    4.4563481    1.1327282   -1.7535625    6.2099105    5.5890762 
 5650000   0.79931622  -0.17203611    4.4598785    1.1284049   -1.7492283    6.2091068    5.5882834 
 5660000   0.80143536 -0.068113923    4.4663401    1.1313966    -1.745016    6.2113561    5.5977366 
 5670000    0.8064398  -0.17442552    4.4346826    1.1384614   -1.7767539    6.2114365     5.573144 
 5680000   0.80054868  -0.10583035    4.4622669    1.1301448   -1.7459335    6.2082003    5.5924117 
 5690000   0.79856502  -0.10522971    4.4680873    1.1273445   -1.7445694    6.2126568    5.5954318 
 5700000   0.79890619 -0.099816176     4.456506    1.1278261   -1.7554972    6.2120032    5.5843321 
 5710000   0.79559938 -0.084500984    4.4731244    1.1231578   -1.7385798    6.2117042    5.5962822 
 5720000   0.80302081 -0.077181155     4.456538    1.1336348   -1.7560431    6.2125811    5.5901727 
 5730000    0.7967889  -0.20480926    4.4603017    1.1248371   -1.7506372    6.2109389    5.5851388 
 5740000   0.79993138  -0.12687967    4.4490985    1.1292734   -1.7648081    6.2139066    5.5783719 
 5750000   0.80033032  -0.13261833    4.4700115    1.1298366   -1.7463381    6.2163496     5.599848 
 5760000   0.79720811  -0.11095221     4.466273    1.1254289   -1.7444591    6.2107321    5.5917019 
 5770000   0.79738198  -0.17998238    4.4668021    1.1256743   -1.7452188    6.2120209    5.5924764 
 5780000   0.79236817  -0.12395718    4.4696312    1.1185963   -1.7434585    6.2130897    5.5882275 
 5790000   0.80035332  -0.17137705    4.4537515     1.129869   -1.7550196    6.2087711    5.5836206 
 5800000    0.7905924  -0.15118195    4.4654626    1.1160894   -1.7455886    6.2110511     5.581552 
 5810000     0.812536  -0.11732209    4.4703487    1.1470675    -1.741139    6.2114877    5.6174162 
 5820000   0.80614459  -0.14971296    4.4606996    1.1380446   -1.7466326    6.2073322    5.5987442 
 5830000   0.79416526 -0.091492617    4.4491507    1.1211333   -1.7637798    6.2129305     5.570284 
 5840000   0.80489149  -0.10692864    4.4831746    1.1362756   -1.7292853      6.21246    5.6194503 
 5850000   0.79849948 -0.068149169    4.4667112    1.1272519   -1.7444848     6.211196    5.5939631 
 5860000   0.80168882  -0.19729805    4.4573469    1.1317544   -1.7537874    6.2111344    5.5891013 
 5870000   0.79143459  -0.15633503     4.460055    1.1172783   -1.7551114    6.2151663    5.5773333 
 5880000    0.8041242 -0.058770801    4.4568207    1.1351924   -1.7534918    6.2103125    5.5920131 
 5890000   0.80012867 -0.060154403    4.4506237    1.1295519   -1.7615761    6.2121998    5.5801756 
 5900000   0.80244474  -0.15537915    4.4467113    1.1328215   -1.7630425    6.2097538    5.5795328 
 5910000   0.80145497  -0.11720184    4.4564574    1.1314242   -1.7548364    6.2112938    5.5878816 
 5920000   0.79645782  -0.11476665    4.4645815    1.1243697   -1.7460097    6.2105913    5.5889512 
 5930000   0.80290829  -0.11484953    4.4503267    1.1334759   -1.7589773     6.209304    5.5838026 
 5940000   0.80584728  -0.10124646    4.4603869    1.1376249   -1.7497657    6.2101527    5.5980118 
 5950000   0.79389739 -0.096014513    4.4575187    1.1207551   -1.7547586    6.2122773    5.5782738 
 5960000   0.79991918 -0.0017629713    4.4622799    1.1292561   -1.7494797    6.2117597    5.5915361 
 5970000   0.79438433 -0.061168723    4.4547935    1.1214425   -1.7567008    6.2114943    5.5762361 
 5980000   0.79750353 -0.093838651    4.4693908    1.1258459   -1.7396413    6.2090321    5.5952368 
 5990000   0.79756469 -0.074301014    4.4710248    1.1259323    -1.740275    6.2112997     5.596957 
 6000000   0.80013977 -0.071028925    4.4720398    1.1295676   -1.7406798    6.2127196    5.6016074 
Loop time of 130272 on 216 procs for 6000000 steps with 28900 atoms

Performance: 19896.852 tau/day, 46.058 timesteps/s
99.8% CPU use with 216 MPI tasks x 1 OpenMP threads

MPI task timing breakdown:
Section |  min time  |  avg time  |  max time  |%varavg| %total
---------------------------------------------------------------
Pair    | 1438.8     | 1792.9     | 2238.9     | 433.7 |  1.38
Bond    | 15.114     | 19.505     | 25.61      |  55.4 |  0.01
Kspace  | 1.2096e+05 | 1.2142e+05 | 1.2187e+05 |  59.5 | 93.20
Neigh   | 967.68     | 1005.4     | 1044.1     |  53.5 |  0.77
Comm    | 1450.1     | 1704.1     | 1975.9     | 292.8 |  1.31
Output  | 2.9904     | 3.0383     | 3.0508     |   0.3 |  0.00
Modify  | 3572.7     | 3750       | 3916.3     | 121.0 |  2.88
Other   |            | 580.7      |            |       |  0.45

Nlocal:    133.796 ave 222 max 3 min
Histogram: 5 1 6 4 10 96 46 27 17 4
Nghost:    974.546 ave 1322 max 283 min
Histogram: 2 4 2 9 11 27 65 50 32 14
Neighs:    5354.86 ave 14150 max 10 min
Histogram: 9 9 60 62 31 20 14 7 3 1

Total # of neighbors = 1156650
Ave neighs/atom = 40.0225
Ave special neighs/atom = 0.602076
Neighbor list builds = 805298
Dangerous builds = 0
System init for write_restart ...
PPPM initialization ...
  using 12-bit tables for long-range coulomb (src/kspace.cpp:332)
  G vector (1/distance) = 1.26818
  grid = 135 135 135
  stencil order = 5
  estimated absolute RMS force accuracy = 0.00013496
  estimated relative force accuracy = 0.00013496
  using double precision FFTW3
  3d grid and FFT values/proc = 24389 12960
WARNING: Neighbor exclusions used with KSpace solver may give inconsistent Coulombic energies (src/neighbor.cpp:486)
Neighbor list info ...
  update every 1 steps, delay 0 steps, check yes
  max neighbors/atom: 2000, page size: 100000
  master list distance cutoff = 2.8
  ghost atom cutoff = 2.8
  binsize = 1.4, bins = 24 24 24
  7 neighbor lists, perpetual/occasional/extra = 2 5 0
  (1) pair lj/cut, perpetual
      attributes: half, newton on
      pair build: half/bin/newton
      stencil: half/bin/3d/newton
      bin: standard
  (2) pair coul/long, perpetual, skip from (1)
      attributes: half, newton on
      pair build: skip
      stencil: none
      bin: none
  (3) compute rdf, occasional, copy from (1)
      attributes: half, newton on
      pair build: copy
      stencil: none
      bin: none
  (4) compute rdf, occasional, copy from (1)
      attributes: half, newton on
      pair build: copy
      stencil: none
      bin: none
  (5) compute rdf, occasional, copy from (1)
      attributes: half, newton on
      pair build: copy
      stencil: none
      bin: none
  (6) compute rdf, occasional, copy from (1)
      attributes: half, newton on
      pair build: copy
      stencil: none
      bin: none
  (7) compute rdf, occasional, copy from (1)
      attributes: half, newton on
      pair build: copy
      stencil: none
      bin: none
PPPM initialization ...
  using 12-bit tables for long-range coulomb (src/kspace.cpp:332)
  G vector (1/distance) = 1.26818
  grid = 135 135 135
  stencil order = 5
  estimated absolute RMS force accuracy = 0.00013496
  estimated relative force accuracy = 0.00013496
  using double precision FFTW3
  3d grid and FFT values/proc = 24389 12960
WARNING: Neighbor exclusions used with KSpace solver may give inconsistent Coulombic energies (src/neighbor.cpp:486)
Neighbor list info ...
  update every 1 steps, delay 0 steps, check yes
  max neighbors/atom: 2000, page size: 100000
  master list distance cutoff = 2.8
  ghost atom cutoff = 2.8
  binsize = 1.4, bins = 24 24 24
  7 neighbor lists, perpetual/occasional/extra = 2 5 0
  (1) pair lj/cut, perpetual
      attributes: half, newton on
      pair build: half/bin/newton
      stencil: half/bin/3d/newton
      bin: standard
  (2) pair coul/long, perpetual, skip from (1)
      attributes: half, newton on
      pair build: skip
      stencil: none
      bin: none
  (3) compute rdf, occasional, copy from (1)
      attributes: half, newton on
      pair build: copy
      stencil: none
      bin: none
  (4) compute rdf, occasional, copy from (1)
      attributes: half, newton on
      pair build: copy
      stencil: none
      bin: none
  (5) compute rdf, occasional, copy from (1)
      attributes: half, newton on
      pair build: copy
      stencil: none
      bin: none
  (6) compute rdf, occasional, copy from (1)
      attributes: half, newton on
      pair build: copy
      stencil: none
      bin: none
  (7) compute rdf, occasional, copy from (1)
      attributes: half, newton on
      pair build: copy
      stencil: none
      bin: none
Setting up Verlet run ...
  Unit style    : lj
  Current step  : 6000000
  Time step     : 0.005
Per MPI rank memory allocation (min/avg/max) = 18.06 | 20.55 | 21.22 Mbytes
Step Lx Ly Lz Press Pxx Pyy Pzz PotEng Temp 
 6000000    32.834682    32.834682    32.834682   0.14313996   0.41003447  -0.75921843   0.77860384    4.4720398   0.80013977 
 6000010    33.491376     32.51118     32.51118 -0.012619869   -1.2370138   0.67731245   0.52184177    4.4851907   0.80964942 
 6000020    34.148069    32.197055    32.197055 0.0050436613   -1.5798213   0.85182661   0.74312567    4.5056201   0.83299602 
 6000030    34.804763    31.891862    31.891862   0.21605178   -1.7499094    1.2309905    1.1670743    4.5482904     0.845657 
 6000040    35.461457    31.595188    31.595188   0.30001398   -1.6957739    1.3441309    1.2516849    4.5800513   0.86984669 
 6000050     36.11815    31.306641    31.306641   0.46282334   -1.5490643    1.4646005    1.4729339    4.6116274   0.89116682 
 6000060    36.774844    31.025858    31.025858   0.64080141   -1.4241604    1.7731691    1.5733955    4.6417899   0.91252818 
 6000070    37.431538    30.752497    30.752497   0.73175076   -1.3269707    1.8184374    1.7037856     4.668337   0.93637821 
 6000080    38.088231    30.486237    30.486237   0.90304382   -1.0146317    1.9326726    1.7910906    4.6863135   0.96327622 
 6000090    38.744925    30.226775    30.226775   0.92098833   -0.9454437    1.8349236    1.8734851    4.7168215   0.97805316 
 6000100    39.401618    29.973827    29.973827   0.99433799  -0.85499129    1.9251142    1.9128911    4.7343341    0.9995056 
Loop time of 3.46723 on 216 procs for 100 steps with 28900 atoms

Performance: 12459.511 tau/day, 28.841 timesteps/s
99.7% CPU use with 216 MPI tasks x 1 OpenMP threads

MPI task timing breakdown:
Section |  min time  |  avg time  |  max time  |%varavg| %total
---------------------------------------------------------------
Pair    | 0.00075769 | 0.02875    | 0.080385   |   7.0 |  0.83
Bond    | 4.2677e-05 | 0.00024743 | 0.00062776 |   0.0 |  0.01
Kspace  | 2.3493     | 2.4241     | 2.4782     |   1.7 | 69.91
Neigh   | 0.066347   | 0.07957    | 0.099492   |   2.0 |  2.29
Comm    | 0.070976   | 0.11877    | 0.18845    |   7.1 |  3.43
Output  | 0.011299   | 0.021189   | 0.027891   |   2.0 |  0.61
Modify  | 0.4334     | 0.50893    | 0.603      |   4.5 | 14.68
Other   |            | 0.2857     |            |       |  8.24

Nlocal:    133.796 ave 219 max 4 min
Histogram: 5 0 7 4 11 87 48 27 23 4
Nghost:    982.056 ave 1349 max 281 min
Histogram: 2 3 3 9 12 28 71 51 29 8
Neighs:    5357.63 ave 13434 max 14 min
Histogram: 9 7 40 70 37 21 22 7 0 3

Total # of neighbors = 1157249
Ave neighs/atom = 40.0432
Ave special neighs/atom = 0.602076
Neighbor list builds = 49
Dangerous builds = 0
PPPM initialization ...
  using 12-bit tables for long-range coulomb (src/kspace.cpp:332)
  G vector (1/distance) = 1.27361
  grid = 160 128 128
  stencil order = 5
  estimated absolute RMS force accuracy = 0.000123352
  estimated relative force accuracy = 0.000123352
  using double precision FFTW3
  3d grid and FFT values/proc = 25872 14080
WARNING: Neighbor exclusions used with KSpace solver may give inconsistent Coulombic energies (src/neighbor.cpp:486)
Neighbor list info ...
  update every 1 steps, delay 0 steps, check yes
  max neighbors/atom: 2000, page size: 100000
  master list distance cutoff = 2.8
  ghost atom cutoff = 2.8
  binsize = 1.4, bins = 29 22 22
  7 neighbor lists, perpetual/occasional/extra = 2 5 0
  (1) pair lj/cut, perpetual
      attributes: half, newton on
      pair build: half/bin/newton
      stencil: half/bin/3d/newton
      bin: standard
  (2) pair coul/long, perpetual, skip from (1)
      attributes: half, newton on
      pair build: skip
      stencil: none
      bin: none
  (3) compute rdf, occasional, copy from (1)
      attributes: half, newton on
      pair build: copy
      stencil: none
      bin: none
  (4) compute rdf, occasional, copy from (1)
      attributes: half, newton on
      pair build: copy
      stencil: none
      bin: none
  (5) compute rdf, occasional, copy from (1)
      attributes: half, newton on
      pair build: copy
      stencil: none
      bin: none
  (6) compute rdf, occasional, copy from (1)
      attributes: half, newton on
      pair build: copy
      stencil: none
      bin: none
  (7) compute rdf, occasional, copy from (1)
      attributes: half, newton on
      pair build: copy
      stencil: none
      bin: none
Setting up Verlet run ...
  Unit style    : lj
  Current step  : 6000100
  Time step     : 0.005
Per MPI rank memory allocation (min/avg/max) = 18.19 | 20.65 | 21.37 Mbytes
Step Lx Ly Lz Press Pxx Pyy Pzz PotEng Temp 
 6000100    39.401618    29.973827    29.973827   0.65620479  -0.60943603    1.7273999   0.85065051    4.7480511   0.99950559 
 6010000    39.401618    29.973827    29.973827  -0.15322817  -0.17751757   -0.1651464  -0.11702055    4.4609038   0.80179666 
 6020000    39.401618    29.973827    29.973827  -0.05272077 -0.037301015 -0.082843825 -0.038017469    4.4694934   0.79689307 
 6030000    39.401618    29.973827    29.973827 -0.086094534  -0.12211408  -0.10882035 -0.027349172    4.4622796   0.79361001 
 6040000    39.401618    29.973827    29.973827  -0.11372281 -0.099745552  -0.11400615  -0.12741672    4.4502283   0.80424078 
 6050000    39.401618    29.973827    29.973827  -0.15802157 -0.044235194  -0.24992498  -0.17990453    4.4766008   0.79894031 
 6060000    39.401618    29.973827    29.973827 -0.085917808 -0.096345479  -0.10790357  -0.05350437    4.4698688   0.80193745 
 6070000    39.401618    29.973827    29.973827  -0.14243987  -0.18576208 -0.090806816  -0.15075071     4.476576   0.80252223 
 6080000    39.401618    29.973827    29.973827  -0.13883041  -0.13873971  -0.17066721  -0.10708433    4.4593975   0.79883776 
 6090000    39.401618    29.973827    29.973827  -0.13365386  -0.11088136  -0.16923304  -0.12084718    4.4619671   0.80389817 
 6100000    39.401618    29.973827    29.973827 -0.057091749 -0.051354111 -0.039561812 -0.080359325    4.4776982   0.80293239 
 6100100    39.401618    29.973827    29.973827 -0.094493388 -0.077294689  -0.09981329  -0.10637218     4.471991   0.79635727 
Loop time of 2332.65 on 216 procs for 100000 steps with 28900 atoms

Performance: 18519.715 tau/day, 42.870 timesteps/s
99.7% CPU use with 216 MPI tasks x 1 OpenMP threads

MPI task timing breakdown:
Section |  min time  |  avg time  |  max time  |%varavg| %total
---------------------------------------------------------------
Pair    | 1.0916     | 29.191     | 74.836     | 214.1 |  1.25
Bond    | 0.05247    | 0.27269    | 0.62221    |  25.5 |  0.01
Kspace  | 2143       | 2185.4     | 2214       |  30.4 | 93.69
Neigh   | 15.526     | 16.254     | 16.814     |   6.2 |  0.70
Comm    | 28.081     | 39.156     | 53.38      |  82.0 |  1.68
Output  | 0.04906    | 0.049118   | 0.050254   |   0.0 |  0.00
Modify  | 44.507     | 51.455     | 62.156     |  67.7 |  2.21
Other   |            | 10.9       |            |       |  0.47

Nlocal:    133.796 ave 253 max 6 min
Histogram: 5 5 4 5 84 63 29 16 3 2
Nghost:    981.736 ave 1347 max 261 min
Histogram: 1 4 6 4 10 34 65 54 30 8
Neighs:    5357.13 ave 16760 max 50 min
Histogram: 11 11 97 48 24 14 9 0 0 2

Total # of neighbors = 1157141
Ave neighs/atom = 40.0395
Ave special neighs/atom = 0.602076
Neighbor list builds = 13423
Dangerous builds = 0
Total wall time: 42:34:45
