LAMMPS (3 Mar 2020)
OMP_NUM_THREADS environment is not set. Defaulting to 1 thread. (src/comm.cpp:94)
  using 1 OpenMP thread(s) per MPI task
Reading data file ...
  orthogonal box = (0 0 0) to (35 35 35)
  6 by 6 by 6 MPI processor grid
  reading atoms ...
  28900 atoms
  scanning bonds ...
  1 = max bonds/atom
  reading bonds ...
  8700 bonds
Finding 1-2 1-3 1-4 neighbors ...
  special bond factors lj:   0          0          0         
  special bond factors coul: 0          0          0         
  2 = max # of 1-2 neighbors
  2 = max # of 1-3 neighbors
  4 = max # of 1-4 neighbors
  6 = max # of special neighbors
  special bonds CPU = 2.47117 secs
  read_data CPU = 2.62369 secs
9000 atoms in group polyA
9000 atoms in group counterions
9000 atoms in group chain
1900 atoms in group filler
1400 atoms in group water
7600 atoms in group salt
27000 atoms in group exc
Finding 1-2 1-3 1-4 neighbors ...
  special bond factors lj:   0          1          1         
  special bond factors coul: 0          1          1         
  2 = max # of 1-2 neighbors
  6 = max # of special neighbors
  special bonds CPU = 0.0187962 secs
100 rigid bodies with 1900 atoms
Neighbor list info ...
  update every 1 steps, delay 0 steps, check yes
  max neighbors/atom: 2000, page size: 100000
  master list distance cutoff = 1.7
  ghost atom cutoff = 1.7
  binsize = 0.85, bins = 42 42 42
  1 neighbor lists, perpetual/occasional/extra = 1 0 0
  (1) pair soft, perpetual
      attributes: half, newton on
      pair build: half/bin/newton
      stencil: half/bin/3d/newton
      bin: standard
Setting up Verlet run ...
  Unit style    : lj
  Current step  : 0
  Time step     : 0.005
WARNING: Communication cutoff 1.7 is shorter than a bond length based estimate of 1.755. This may lead to errors. (src/comm.cpp:686)
Per MPI rank memory allocation (min/avg/max) = 13.02 | 14.55 | 15.15 Mbytes
Step Temp Press TotEng Volume 
       0   0.79936292    5.3383355    18.173142        42875 
   10000   0.79805081    8.5553199     10.81222        42875 
   20000   0.80604633    9.4787247     11.05083        42875 
   30000   0.80158563    10.456781    11.266441        42875 
   40000   0.79271786    11.400517    11.451396        42875 
   50000   0.79892318    12.290973    11.648125        42875 
   60000   0.80084176    13.249442    11.854557        42875 
   70000    0.7973086    14.069491    12.011715        42875 
   80000   0.80598503    14.928941    12.232781        42875 
   90000   0.79944043    15.896646    12.410828        42875 
  100000   0.80941818    16.778632    12.615132        42875 
  110000   0.80214398     17.69368    12.786893        42875 
  120000   0.80167643    18.562348    12.997856        42875 
  130000    0.8048967    19.440305    13.198277        42875 
  140000   0.80604036    20.313339    13.406478        42875 
  150000   0.79557616    21.229805    13.611391        42875 
  160000   0.80205924    22.146096    13.843293        42875 
  170000   0.79534617    23.048844    14.054819        42875 
  180000   0.79749114     23.95454     14.27501        42875 
  190000    0.7964003    24.817343    14.503368        42875 
  200000   0.80525551    25.774187    14.736133        42875 
  210000   0.80231727    26.632938    14.955862        42875 
  220000    0.7895463    27.537465    15.164173        42875 
  230000   0.79395363     28.40815    15.392546        42875 
  240000   0.79716253    29.348536    15.615248        42875 
  250000   0.80023813    30.214416      15.8487        42875 
  260000   0.79114805    31.088297    16.059142        42875 
  270000   0.80207175    32.057112    16.301489        42875 
  280000   0.80527267    32.974815    16.528375        42875 
  290000   0.80253712    33.822386    16.749089        42875 
  300000   0.79786202    34.670208    16.970652        42875 
  310000   0.80357713    35.584779    17.192319        42875 
  320000   0.80216678      36.4778    17.420416        42875 
  330000   0.80474043    37.339539    17.653629        42875 
  340000   0.79907619    38.283351    17.860788        42875 
  350000   0.79963592    39.157742    18.097653        42875 
  360000   0.79561432     40.02126     18.30496        42875 
  370000   0.80172767    40.924558    18.538873        42875 
  380000   0.80341579     41.80833     18.76848        42875 
  390000   0.79782737    42.698926    18.984486        42875 
  400000   0.79257173    43.571782    19.199934        42875 
  410000   0.80144226    44.508877    19.450807        42875 
  420000   0.79867741    45.270581    19.661168        42875 
  430000   0.80483592    46.241477    19.883884        42875 
  440000   0.80719871    47.137641    20.116614        42875 
  450000   0.80271879    47.935295    20.338884        42875 
  460000   0.79914911    48.834726    20.565681        42875 
  470000   0.80473244    49.728803    20.781325        42875 
  480000   0.79643087    50.546066    21.002151        42875 
  490000   0.79346618    51.512553    21.210216        42875 
  500000   0.79700661    52.338349    21.450369        42875 
  510000   0.80361079    53.237945    21.675846        42875 
  520000   0.80043518    54.131815    21.902474        42875 
  530000   0.79863427    55.034074    22.114795        42875 
  540000   0.80163033    55.852666    22.340284        42875 
  550000   0.80402587    56.705865    22.573787        42875 
  560000   0.79977805    57.703494    22.788316        42875 
  570000   0.80256915    58.497638    23.009767        42875 
  580000   0.79486211    59.308017     23.21486        42875 
  590000   0.80503965    60.191628    23.468642        42875 
  600000   0.79456814     61.12474     23.66421        42875 
  610000   0.80086967    61.917572    23.898105        42875 
  620000   0.79471383    62.810428    24.102373        42875 
  630000    0.8013373    63.730108    24.341926        42875 
  640000   0.80062194    64.516723    24.565511        42875 
  650000   0.80029409    65.448044    24.797166        42875 
  660000    0.7989207    66.308123    24.999666        42875 
  670000   0.79925487    67.166178    25.220088        42875 
  680000   0.79858004    68.039627    25.447117        42875 
  690000   0.80540771     68.91355    25.679868        42875 
  700000   0.79422139    69.718753    25.876396        42875 
  710000   0.80087768    70.661614    26.111488        42875 
  720000   0.80459666    71.479866    26.350987        42875 
  730000   0.80104799    72.324645    26.555568        42875 
  740000   0.79848335     73.22265    26.777528        42875 
  750000   0.80414727    74.098358    26.988643        42875 
  760000   0.80056727    74.942465    27.211033        42875 
  770000   0.79971358    75.831645    27.428484        42875 
  780000   0.81211511    76.703491    27.670685        42875 
  790000    0.7990128     77.55365    27.869991        42875 
  800000   0.80529911    78.328439    28.093636        42875 
  810000   0.80169032    79.309432    28.319771        42875 
  820000   0.80732181    80.110984    28.544983        42875 
  830000   0.80525015    80.996744    28.772493        42875 
  840000    0.7968762    81.855048    28.973811        42875 
  850000   0.79810505    82.671318    29.193403        42875 
  860000   0.79705863    83.546229    29.413801        42875 
  870000     0.797166    84.365633    29.631781        42875 
  880000   0.80437685    85.213375    29.844964        42875 
  890000   0.80160725    86.073359    30.075845        42875 
  900000   0.80619387    86.994471    30.301526        42875 
  910000   0.80328007    87.790942    30.513347        42875 
  920000   0.79844658    88.655639    30.732001        42875 
  930000   0.80505848    89.471371    30.955957        42875 
  940000   0.80450177    90.323893    31.165271        42875 
  950000   0.79841479    91.271757    31.379031        42875 
  960000   0.79806707    92.077312    31.584869        42875 
  970000   0.79555249    92.891038    31.813195        42875 
  980000   0.80237499    93.793742    32.043059        42875 
  990000   0.80249078    94.608599    32.260284        42875 
 1000000   0.80378189    95.421177    32.478119        42875 
 1010000   0.80194075    96.322778    32.693711        42875 
 1020000   0.79524652    97.120762    32.903985        42875 
 1030000   0.80371285    98.010837    33.123668        42875 
 1040000   0.79477294    98.835673    33.337901        42875 
 1050000   0.79837204    99.676947    33.550498        42875 
 1060000    0.8043663    100.50943     33.78774        42875 
 1070000   0.80077962    101.41219    34.004716        42875 
 1080000   0.80043549    102.21662    34.212347        42875 
 1090000   0.79955717    103.06396    34.446957        42875 
 1100000   0.80043685    103.90797    34.659357        42875 
 1110000   0.79936742    104.79561    34.864058        42875 
 1120000    0.8072175    105.56191    35.096377        42875 
 1130000   0.79981436    106.53437    35.304691        42875 
 1140000   0.79889729    107.33321    35.523627        42875 
 1150000   0.80140855    108.15154     35.74847        42875 
 1160000   0.79890887     109.1076    35.956589        42875 
 1170000     0.795954    109.88949    36.159597        42875 
 1180000   0.79532156    110.66782     36.38495        42875 
 1190000   0.80662396    111.56695    36.615253        42875 
 1200000   0.80560253    112.41691    36.838665        42875 
 1210000   0.79882805    113.21833    37.039299        42875 
 1220000    0.8082571     114.1525    37.265987        42875 
 1230000   0.80306428    114.94781    37.477632        42875 
 1240000    0.7976427    115.82708    37.692078        42875 
 1250000   0.79915034    116.64103    37.903126        42875 
 1260000   0.79772199    117.49597     38.12174        42875 
 1270000   0.80423232    118.36404    38.342584        42875 
 1280000   0.80324539    119.23532    38.567123        42875 
 1290000   0.80370176    120.03103    38.779038        42875 
 1300000   0.79826445    120.84015    38.982115        42875 
 1310000   0.79762452    121.63393    39.208082        42875 
 1320000   0.79565354    122.43739    39.413292        42875 
 1330000   0.79839732    123.45752    39.635734        42875 
 1340000   0.79960682    124.13544    39.862302        42875 
 1350000   0.79824394    124.97949    40.056053        42875 
 1360000   0.80440378    125.88346    40.286006        42875 
 1370000   0.79788489    126.72765    40.492557        42875 
 1380000   0.80380606     127.6554    40.718936        42875 
 1390000   0.80202288    128.35707    40.935376        42875 
 1400000   0.79699841    129.17171    41.150467        42875 
 1410000   0.80369705    130.01719    41.356425        42875 
 1420000   0.79643318    130.86129    41.567344        42875 
 1430000   0.79681827    131.67979    41.790617        42875 
 1440000   0.80398105    132.47766    42.019478        42875 
 1450000   0.79872848    133.38924    42.206921        42875 
 1460000   0.79962343    134.21716    42.436018        42875 
 1470000   0.79172509    134.99777    42.632251        42875 
 1480000   0.80830742    135.88185    42.882956        42875 
 1490000   0.79697903    136.72211    43.075887        42875 
 1500000   0.80421632    137.63076    43.317019        42875 
 1510000   0.79242128    138.38064    43.494919        42875 
 1520000   0.80686647    139.19583    43.728406        42875 
 1530000   0.80640407    139.93568    43.945101        42875 
 1540000    0.8007141     140.9613    44.158556        42875 
 1550000   0.79976114    141.69209    44.368201        42875 
 1560000   0.79872414    142.53433    44.579342        42875 
 1570000   0.80136775    143.46246    44.803225        42875 
 1580000   0.80405479    144.30621    45.009437        42875 
 1590000   0.80264446    145.05829     45.23107        42875 
 1600000   0.79261793    145.83477    45.438263        42875 
 1610000   0.79920583    146.69621    45.655779        42875 
 1620000   0.79586911    147.59272    45.864355        42875 
 1630000   0.79898021    148.33068    46.070832        42875 
 1640000   0.80100225    149.18412    46.304906        42875 
 1650000   0.80163981    150.10601    46.504482        42875 
 1660000   0.79669978     150.8412     46.69881        42875 
 1670000   0.79996818    151.71576    46.934758        42875 
 1680000   0.79795774    152.53681    47.155837        42875 
 1690000   0.79909601    153.39914    47.362784        42875 
 1700000   0.79237498    154.18855    47.569283        42875 
 1710000   0.79637991    155.08626    47.785323        42875 
 1720000   0.79306807    155.88971    48.002564        42875 
 1730000   0.80386472    156.70318    48.218763        42875 
 1740000   0.80778092    157.49566     48.45241        42875 
 1750000   0.79763567    158.37626    48.627074        42875 
 1760000    0.8041793     159.1778    48.867444        42875 
 1770000   0.80450155    159.93809    49.086294        42875 
 1780000   0.80446979    160.82804    49.288019        42875 
 1790000   0.80016387     161.6569    49.497728        42875 
 1800000   0.80828331     162.4628    49.732246        42875 
 1810000   0.80628574    163.35165    49.933397        42875 
 1820000   0.79963476    164.09645    50.138199        42875 
 1830000     0.799406     164.9739    50.350622        42875 
 1840000    0.7985433    165.71067    50.562273        42875 
 1850000   0.79681161    166.68365    50.773427        42875 
 1860000   0.79684488    167.42529    50.993016        42875 
 1870000   0.80621582    168.33885    51.207621        42875 
 1880000   0.80192109    169.08609    51.408546        42875 
 1890000   0.80524935    169.81552    51.645433        42875 
 1900000   0.80107152    170.67089    51.840271        42875 
 1910000   0.79668293    171.47501    52.051287        42875 
 1920000   0.80138053    172.22757     52.25628        42875 
 1930000   0.80587505    173.24437     52.47981        42875 
 1940000   0.80388524    174.05619    52.700014        42875 
 1950000   0.80069486    174.89618    52.911341        42875 
 1960000   0.79915776    175.61968    53.112482        42875 
 1970000   0.80504487    176.49441    53.337577        42875 
 1980000   0.79863114     177.2673    53.529066        42875 
 1990000     0.801276    178.08926    53.751105        42875 
 2000000   0.80036759    178.94285    53.968379        42875 
Loop time of 1196.96 on 216 procs for 2000000 steps with 28900 atoms

Performance: 721831.245 tau/day, 1670.906 timesteps/s
99.9% CPU use with 216 MPI tasks x 1 OpenMP threads

MPI task timing breakdown:
Section |  min time  |  avg time  |  max time  |%varavg| %total
---------------------------------------------------------------
Pair    | 121.85     | 129.11     | 152.27     |  41.3 | 10.79
Bond    | 0.92909    | 2.8616     | 4.4753     |  42.4 |  0.24
Neigh   | 71.551     | 80.436     | 86.039     |  27.1 |  6.72
Comm    | 270.3      | 315.95     | 383.59     | 101.8 | 26.40
Output  | 0.65325    | 0.65666    | 0.67376    |   0.2 |  0.05
Modify  | 458.44     | 504.41     | 555.88     |  63.2 | 42.14
Other   |            | 163.5      |            |       | 13.66

Nlocal:    133.796 ave 202 max 115 min
Histogram: 17 106 56 20 10 3 3 0 0 1
Nghost:    397.778 ave 464 max 363 min
Histogram: 11 31 64 43 30 19 8 4 5 1
Neighs:    879.991 ave 1487 max 731 min
Histogram: 29 110 46 17 8 5 0 0 0 1

Total # of neighbors = 190078
Ave neighs/atom = 6.57709
Ave special neighs/atom = 0.602076
Neighbor list builds = 239139
Dangerous builds = 0
System init for write_data ...
Neighbor list info ...
  update every 1 steps, delay 0 steps, check yes
  max neighbors/atom: 2000, page size: 100000
  master list distance cutoff = 2.8
  ghost atom cutoff = 2.8
  binsize = 1.4, bins = 25 25 25
  1 neighbor lists, perpetual/occasional/extra = 1 0 0
  (1) pair lj/cut, perpetual
      attributes: half, newton on
      pair build: half/bin/newton
      stencil: half/bin/3d/newton
      bin: standard
Setting up Verlet run ...
  Unit style    : lj
  Current step  : 2000000
  Time step     : 0.005
Per MPI rank memory allocation (min/avg/max) = 13.05 | 14.65 | 15.17 Mbytes
Step Temp Press TotEng Volume 
 2000000   0.80036759    5.3983662    4.7860337        42875 
 2010000   0.80212222  -0.25393133    2.2169177     35406.18 
 2020000   0.80110648  -0.23630327    2.2304939    35547.075 
 2030000   0.79616204  -0.23475164    2.2327887    35631.377 
 2040000   0.79287794  -0.24961152     2.219066     35532.96 
 2050000   0.80239332  -0.23580574     2.240807    35611.445 
 2060000    0.8039873  -0.24680491    2.2379329    35517.476 
 2070000   0.80380492  -0.23472918    2.2260309    35477.392 
 2080000   0.79778985  -0.23916899    2.2007637    35419.093 
 2090000   0.79852418  -0.23664767    2.2217396    35477.939 
 2100000   0.79763859  -0.24085135    2.2151167    35508.205 
 2110000   0.80338829  -0.23985687    2.2257208      35491.4 
 2120000   0.80248539  -0.24533736    2.2193017    35513.455 
 2130000    0.8070914  -0.23563597    2.2481143    35605.778 
 2140000   0.79515774  -0.23882941    2.2047676    35457.033 
 2150000   0.79657384  -0.24310573     2.205014    35409.242 
 2160000   0.80089244  -0.23810956    2.2316806    35524.353 
 2170000   0.80028591  -0.23586958    2.2050271     35394.45 
 2180000   0.79436376  -0.23938289    2.2174509    35516.128 
 2190000   0.80321041  -0.24050772    2.2304252    35553.694 
 2200000   0.79474242  -0.23841817    2.2103218    35455.935 
 2210000   0.79560838  -0.24413421     2.209255    35441.436 
 2220000   0.80127649  -0.23752401    2.2311809    35505.792 
 2230000   0.79450244  -0.23253362    2.2303904    35575.497 
 2240000   0.80522682  -0.24929204    2.2095103     35391.58 
 2250000   0.79626112  -0.23940248    2.2109599    35483.705 
 2260000   0.79616551  -0.23204943    2.2066049    35392.691 
 2270000   0.79579037  -0.23704926    2.2031284    35418.669 
 2280000   0.80246531  -0.24606719    2.1929154    35307.046 
 2290000   0.80301506  -0.23992824    2.2268519    35508.977 
 2300000   0.79845482    -0.241098     2.224088    35478.523 
 2310000   0.80347697   -0.2439191    2.2302233     35503.84 
 2320000   0.80173581  -0.23403955    2.2376719    35607.308 
 2330000    0.8021589  -0.24315434    2.2282023    35509.532 
 2340000   0.79719659  -0.24104575    2.2055711    35435.053 
 2350000   0.80102477   -0.2401514    2.2029656    35377.881 
 2360000   0.79676339  -0.23652997    2.2267341    35548.879 
 2370000   0.79614349  -0.24001119    2.2158862    35541.738 
 2380000   0.80181848  -0.24215694    2.2325894    35597.879 
 2390000    0.8030607  -0.23753212    2.2447286     35682.43 
 2400000   0.79887888  -0.23290061    2.2189597    35483.723 
 2410000   0.80222811  -0.24388847    2.2237736    35532.849 
 2420000     0.798317  -0.24481766    2.1985309    35394.638 
 2430000    0.7997407  -0.23558824    2.1990685     35374.69 
 2440000   0.80182899  -0.23640129    2.2178358    35496.993 
 2450000   0.80070284  -0.24285541    2.2155321    35454.346 
 2460000   0.79761534  -0.24380823     2.219157    35522.756 
 2470000   0.79930881  -0.24118769    2.2223074    35525.993 
 2480000   0.79579182  -0.24079448    2.2177904    35553.979 
 2490000   0.79928851   -0.2481162    2.2067165    35379.169 
 2500000   0.80755989  -0.24823772     2.217945    35387.907 
 2510000    0.7971266  -0.23754503    2.2125235    35495.095 
 2520000   0.80412428   -0.2426913    2.2217298    35495.504 
 2530000   0.79848488  -0.23839628     2.221995    35551.646 
 2540000   0.80240846  -0.24069187    2.1997489    35377.307 
 2550000   0.81079916  -0.24367014    2.2281649    35490.681 
 2560000   0.80491261  -0.23403067    2.2208167    35475.353 
 2570000   0.79400544  -0.24541404    2.2047589    35463.908 
 2580000   0.79868274  -0.23884201    2.2088773    35413.131 
 2590000   0.80971589  -0.24592841    2.2458765    35541.234 
 2600000    0.8006337  -0.24052768    2.2211736     35571.05 
 2610000     0.796362   -0.2403578    2.2186496    35562.901 
 2620000   0.79432749  -0.24296057    2.1877642     35406.09 
 2630000   0.80072043  -0.25148262    2.2177173    35444.894 
 2640000   0.79891628  -0.24239701    2.2109163    35428.222 
 2650000   0.81227963  -0.24835627    2.2242193    35432.332 
 2660000   0.79951429  -0.24010153    2.2051662    35399.606 
 2670000    0.8023301  -0.24495674    2.2278297    35590.645 
 2680000   0.80272712  -0.23130231    2.2192535     35528.59 
 2690000   0.80198101   -0.2349062    2.2195904    35499.662 
 2700000   0.80409804  -0.23548363    2.2055319    35421.326 
 2710000   0.79499356  -0.24169716    2.2126132     35475.02 
 2720000   0.80074996  -0.25374491    2.2145883      35438.4 
 2730000   0.79363201  -0.23400201    2.1857441    35352.483 
 2740000   0.79686825  -0.24028903    2.2149826    35528.454 
 2750000   0.80175956  -0.23712757    2.2148653      35457.2 
 2760000    0.8044317  -0.24318403    2.2092263    35438.425 
 2770000   0.80814542  -0.24153149    2.2183393    35473.062 
 2780000   0.80594333   -0.2417758    2.2175889    35437.033 
 2790000   0.79700017  -0.23801301    2.1968277    35404.846 
 2800000   0.79242407  -0.23071606    2.2071846    35525.727 
 2810000   0.79893555  -0.24306477    2.1916094    35376.494 
 2820000   0.79800787  -0.24547577     2.195952    35385.427 
 2830000   0.80067902  -0.22985756    2.2129515    35459.792 
 2840000    0.7924975  -0.24992621    2.1918678      35369.4 
 2850000   0.80237688  -0.23903737    2.2128312    35478.035 
 2860000   0.80012499  -0.24769226    2.2003001    35430.624 
 2870000   0.79831219  -0.24890636     2.205861    35488.584 
 2880000   0.80347692  -0.23169982    2.2103265    35429.236 
 2890000   0.80651705  -0.23835404    2.2068458    35354.435 
 2900000   0.79870755  -0.23887847    2.2044115    35472.895 
 2910000   0.80591654  -0.24200398    2.2340617    35553.447 
 2920000   0.79361317  -0.24173166    2.2041575    35497.355 
 2930000    0.7979354  -0.23958008    2.1932038    35353.644 
 2940000   0.79971427  -0.24196203    2.2067189    35453.225 
 2950000   0.80215282  -0.23166586    2.2157514    35509.929 
 2960000   0.79630748  -0.24882412    2.1825518    35335.745 
 2970000   0.79943321  -0.25237833    2.1922459    35389.635 
 2980000   0.80064099  -0.24947185    2.2006685    35389.475 
 2990000   0.79821599  -0.24141558    2.2158455    35551.177 
 3000000   0.80213331  -0.24182187     2.196156    35351.423 
 3010000    0.8016095  -0.24189523    2.1912073    35339.992 
 3020000   0.79288011  -0.24826135     2.201167    35435.284 
 3030000   0.81088559  -0.23260428    2.2311181    35469.509 
 3040000   0.79729187  -0.24920294    2.1712641     35207.25 
 3050000   0.80606637   -0.2487835    2.1921511    35312.118 
 3060000   0.80258677  -0.23926961    2.1884991    35299.303 
 3070000   0.80351203  -0.23862099    2.1911669    35314.222 
 3080000    0.7917649  -0.24479552    2.1748295    35284.412 
 3090000   0.80206602  -0.24610255    2.1965513     35350.07 
 3100000   0.80083421  -0.24529009    2.2103904    35460.372 
 3110000   0.80167823  -0.24495187    2.1973099    35392.328 
 3120000   0.80255987  -0.24004631    2.2098673    35424.732 
 3130000   0.80938032  -0.23731421    2.2040419    35334.462 
 3140000   0.80451043  -0.24330096    2.2311856    35499.733 
 3150000   0.80245872  -0.23893299    2.2052001    35408.943 
 3160000   0.79581972  -0.24422689    2.1900819    35329.237 
 3170000   0.80188234  -0.23981169    2.2038326    35377.386 
 3180000   0.79396768  -0.24185725    2.1864408    35346.477 
 3190000   0.80172506  -0.23997955    2.2000551    35404.032 
 3200000   0.80187179  -0.23565238    2.2156948     35425.47 
 3210000   0.80182658  -0.24872919    2.1952493    35383.151 
 3220000   0.79758485  -0.23925774    2.1909521    35391.636 
 3230000   0.80103539  -0.23901739    2.1865949    35367.747 
 3240000    0.8069025  -0.24429696    2.2022603    35370.313 
 3250000    0.8030035  -0.24346294    2.2025787    35387.201 
 3260000   0.79546255  -0.24016511     2.182985    35326.844 
 3270000   0.80013092   -0.2367391    2.1995972    35372.895 
 3280000   0.79936716  -0.23763691    2.2043055     35427.32 
 3290000   0.80177278  -0.24587303     2.217255     35499.89 
 3300000   0.79923357  -0.24447615    2.1895645    35338.374 
 3310000   0.79399013  -0.23220191    2.1796618    35292.338 
 3320000   0.79939131  -0.24825151     2.186771    35329.717 
 3330000   0.80378885  -0.24205933    2.2181569    35493.403 
 3340000   0.79744128  -0.24807821    2.1812058    35271.668 
 3350000   0.79648145   -0.2504391    2.1873078    35361.003 
 3360000   0.80559376  -0.23677623    2.2029453     35353.14 
 3370000    0.8007234  -0.24377313    2.2205794    35526.941 
 3380000   0.80145971  -0.23814953    2.1907988    35331.033 
 3390000   0.80465556  -0.24323919    2.2039307    35390.916 
 3400000   0.80573191   -0.2513826    2.1853842    35263.174 
 3410000   0.79894951  -0.24191838    2.1914826     35385.53 
 3420000   0.80027007  -0.24436926    2.1938598    35384.202 
 3430000   0.79661689  -0.23680296    2.1930132    35401.505 
 3440000   0.79747102  -0.23842997    2.2048687    35490.965 
 3450000   0.79762483  -0.23704595     2.208927    35493.878 
 3460000   0.79687179  -0.23843482     2.173673    35265.207 
 3470000    0.7978227  -0.24097767    2.1960675     35401.45 
 3480000   0.80582161  -0.23785789     2.207255    35392.309 
 3490000   0.79886786  -0.24363524    2.2103666    35487.372 
 3500000   0.78961359  -0.24105767    2.1918358    35480.331 
 3510000   0.80406039  -0.24446609    2.2135415    35472.923 
 3520000   0.80397364  -0.24074413    2.1987777    35410.433 
 3530000   0.79896057   -0.2350217      2.20564    35462.727 
 3540000   0.79532865  -0.24088883      2.19303    35406.541 
 3550000   0.79686996  -0.24603715    2.1970719    35437.986 
 3560000    0.8022035  -0.22899723    2.2210008    35522.284 
 3570000   0.80032315  -0.23700018    2.2007226    35343.131 
 3580000   0.80147711  -0.24870121    2.2035599    35398.317 
 3590000   0.79884454  -0.23728185    2.2057795    35450.735 
 3600000   0.79937932  -0.24120006    2.2006363     35416.12 
 3610000    0.8002103  -0.23354884    2.1990652    35440.759 
 3620000   0.80137353  -0.23935128    2.2199675    35483.527 
 3630000   0.80026645  -0.24560937    2.2120266    35462.626 
 3640000   0.79388933  -0.23954487    2.1912968     35420.19 
 3650000   0.80143246  -0.23846948    2.2110978    35495.539 
 3660000   0.79822154  -0.24134322    2.2002635    35426.497 
 3670000    0.8054834  -0.23352261    2.2192163    35517.593 
 3680000   0.80298994  -0.24200091    2.2063494    35425.696 
 3690000   0.79902413  -0.23965083    2.2066978    35435.479 
 3700000   0.80517525  -0.24213282    2.2172997    35447.452 
 3710000   0.80213486  -0.24312848    2.2011973    35367.876 
 3720000   0.79866762  -0.25124417    2.2015062    35418.712 
 3730000   0.79837805  -0.24986167    2.2058413     35438.53 
 3740000   0.80814811  -0.24800046    2.2074283    35428.184 
 3750000   0.80068458  -0.24425572    2.2098473    35479.097 
 3760000   0.80798613  -0.23973328    2.2253795    35518.631 
 3770000   0.79638454  -0.23850224    2.2007358    35486.924 
 3780000   0.80560579  -0.23771008    2.2272145    35512.919 
 3790000   0.80090456  -0.25093902    2.1853399    35345.001 
 3800000   0.79872431  -0.24235897    2.2029667    35404.129 
 3810000   0.79523723  -0.23607385    2.1935969     35425.91 
 3820000   0.79676643   -0.2416497    2.1971219    35431.674 
 3830000   0.79302927  -0.23901418    2.1892774    35418.069 
 3840000    0.7944829  -0.22842923    2.1879708    35385.202 
 3850000   0.80141194   -0.2367241    2.1970081    35384.002 
 3860000   0.79825507   -0.2353248    2.1802811    35281.438 
 3870000   0.79438272  -0.24321348    2.1810087    35375.232 
 3880000   0.79952977  -0.23102844    2.2029182    35406.144 
 3890000   0.80357832  -0.24580682    2.1741109    35221.248 
 3900000   0.80592944  -0.24168719    2.1964751    35301.776 
 3910000   0.80247238  -0.23596239     2.208164    35382.117 
 3920000   0.79334986  -0.23222964     2.170654    35322.181 
 3930000   0.79779411  -0.24213245    2.1924965    35425.377 
 3940000   0.79727962  -0.23806703    2.1885236    35330.116 
 3950000    0.7969185  -0.24265879    2.2008764     35461.58 
 3960000   0.79465158  -0.24399512     2.205918    35460.657 
 3970000   0.79880721  -0.24532766    2.2015906    35455.453 
 3980000   0.79675187   -0.2372436    2.1925918    35381.305 
 3990000   0.79877461  -0.23587882    2.1760197    35305.557 
 4000000   0.79831885  -0.25203498    2.1982886    35413.859 
 4010000   0.81046437  -0.24254472    2.2122921    35454.321 
 4020000   0.80230431  -0.23664005    2.2020318    35388.312 
 4030000   0.80139866  -0.24687145    2.2035673    35448.881 
 4040000   0.80275362  -0.23849431    2.2006252     35351.55 
 4050000   0.80169215  -0.23589628    2.1937414    35380.058 
 4060000   0.80573328  -0.22996274    2.1880943    35356.183 
 4070000   0.79728352  -0.24621786    2.1792871    35328.201 
 4080000   0.78991185  -0.25657328    2.1870824     35419.28 
 4090000   0.79797067  -0.24252839    2.1958982    35424.017 
 4100000   0.80382029  -0.24010048    2.2242308    35534.745 
 4110000   0.79714537  -0.24257047    2.1776398    35294.023 
 4120000   0.80376227  -0.24404283    2.2083585     35448.57 
 4130000   0.80310263  -0.25080787    2.1847307    35281.314 
 4140000   0.78948541  -0.24283908    2.1824974    35436.773 
 4150000   0.79620555  -0.24528522    2.1923188    35420.317 
 4160000     0.799377  -0.24378657    2.1869064    35397.835 
 4170000   0.79642313  -0.23765683     2.186536    35377.664 
 4180000   0.79879655  -0.24370971    2.2040748     35466.42 
 4190000   0.80198315  -0.23829783    2.1766401    35278.671 
 4200000    0.7887336  -0.24530578     2.164678    35317.336 
 4210000   0.80110028   -0.2363887    2.1892152     35347.44 
 4220000   0.80653195  -0.23949213    2.1801805    35249.948 
 4230000   0.79934241  -0.23878862     2.191411    35375.171 
 4240000   0.80167388   -0.2389885    2.1792281     35269.15 
 4250000   0.79084871  -0.24777495     2.183676    35428.426 
 4260000   0.80052991  -0.25450829    2.1773067    35294.594 
 4270000   0.79262405  -0.23915694    2.1845616    35375.231 
 4280000   0.80251969  -0.23884289    2.2030799    35443.509 
 4290000   0.79903866  -0.24169634    2.1789104    35316.751 
 4300000   0.80298572  -0.23722121    2.1983897    35412.312 
 4310000   0.80196494  -0.23514307    2.1632887    35128.782 
 4320000   0.79692254  -0.24420131    2.1874254    35413.848 
 4330000   0.79547428  -0.24397672      2.18949    35415.418 
 4340000   0.79994942  -0.24483414    2.1951281    35431.582 
 4350000   0.80638444  -0.23119188     2.212813    35506.327 
 4360000   0.79806728  -0.23686089    2.1944208    35423.568 
 4370000   0.80219646  -0.24216875    2.1966757    35376.088 
 4380000    0.7995726  -0.23421821    2.1754757    35331.091 
 4390000    0.7963499  -0.23229338    2.1938637    35453.362 
 4400000   0.79914121  -0.24038078    2.2007086    35461.854 
 4410000   0.79749564  -0.24072226    2.1924904    35401.273 
 4420000   0.80229572  -0.25055573    2.1924734    35335.168 
 4430000   0.80383884  -0.24751563    2.1889631    35307.761 
 4440000   0.80177505  -0.23203366    2.2017136    35410.445 
 4450000   0.80350052  -0.24852355    2.1980277    35429.545 
 4460000   0.80007841  -0.24118074    2.1855809    35309.491 
 4470000   0.80119717  -0.24119715    2.1870187    35367.669 
 4480000   0.80283481  -0.24786559      2.17828    35294.734 
 4490000   0.79872565   -0.2474205    2.1935346    35430.065 
 4500000   0.79902405  -0.24056983    2.1866752    35317.311 
 4510000   0.80887339  -0.24028772    2.2161161    35461.382 
 4520000   0.79975742  -0.24222649    2.1721563    35222.825 
 4530000   0.79839118  -0.23212133    2.1822491    35325.958 
 4540000   0.80207591  -0.24754743    2.1890862    35329.525 
 4550000   0.80654358  -0.24075279    2.2087603    35314.936 
 4560000   0.79696889  -0.23820725    2.1810313    35369.826 
 4570000   0.79938024   -0.2380995    2.1905094    35356.944 
 4580000   0.79838988  -0.24082663    2.1994715    35428.179 
 4590000   0.79665425  -0.23864801    2.1807659    35321.614 
 4600000   0.79995151  -0.23686652     2.182987    35318.742 
 4610000   0.79204745  -0.24564095    2.1828989    35380.184 
 4620000   0.80581411  -0.24291323    2.1825136    35323.526 
 4630000   0.79779829  -0.24122491    2.1835724     35304.19 
 4640000   0.79472003  -0.25137801    2.1696014    35274.566 
 4650000   0.80164206  -0.24012445    2.1932455    35396.287 
 4660000   0.80015144  -0.24163858    2.1961031    35440.489 
 4670000    0.8030421  -0.24493954    2.1926313    35364.042 
 4680000   0.80372039  -0.23869919    2.2065278    35468.978 
 4690000    0.7992619  -0.24045215    2.1710646    35245.718 
 4700000   0.80442728  -0.23823567    2.2119859    35468.862 
 4710000   0.80091185  -0.24436748     2.190637    35430.457 
 4720000   0.79765199  -0.23615596    2.1916146    35480.062 
 4730000   0.79888155  -0.24333825     2.192121    35371.352 
 4740000   0.79978068  -0.24532644    2.1983413    35452.312 
 4750000   0.79727577  -0.23658498    2.1913918    35360.971 
 4760000   0.79731247  -0.23778626    2.1931456    35410.553 
 4770000   0.79572501  -0.23966949    2.1851912    35374.489 
 4780000   0.80580932  -0.24576769    2.1767166    35299.097 
 4790000    0.7997821  -0.24942197    2.2022047    35441.081 
 4800000   0.80285528  -0.24058689    2.2015469     35480.75 
 4810000   0.79885301  -0.23155479    2.1825086    35391.211 
 4820000   0.80092347  -0.22941709    2.1822907    35376.242 
 4830000   0.80265635  -0.24229944    2.1944894    35434.854 
 4840000   0.80485014  -0.24278015    2.1846781    35377.524 
 4850000   0.79602079   -0.2305255     2.195544    35488.709 
 4860000    0.7999227   -0.2456674    2.1843471     35401.99 
 4870000     0.799794  -0.23586468    2.1892285    35466.151 
 4880000   0.79820384  -0.24555633    2.1843721    35390.122 
 4890000   0.80665916  -0.24864288    2.1852842    35336.929 
 4900000   0.79277486  -0.24512589    2.1619094    35331.657 
 4910000   0.80592974  -0.24333498    2.1974004    35415.208 
 4920000   0.79829937  -0.24202871    2.1813842    35362.071 
 4930000   0.79973358  -0.24293146    2.1869066    35375.801 
 4940000   0.80711148  -0.24498838    2.1832642    35309.547 
 4950000   0.81008705  -0.23338287    2.2042308    35424.249 
 4960000   0.79629586  -0.23483921    2.1951212    35443.282 
 4970000     0.806788   -0.2426459    2.1922563    35367.295 
 4980000   0.79776606  -0.24563659    2.1756126    35377.235 
 4990000   0.79474527  -0.23901636    2.1754508    35382.231 
 5000000   0.79419483  -0.23781767    2.1691827    35396.694 
 5010000   0.80430826  -0.22879081      2.17807     35298.27 
 5020000   0.80163287  -0.24488875    2.1907562    35449.811 
 5030000   0.80479573  -0.24610101    2.1947459    35431.147 
 5040000    0.8000457  -0.23234277    2.1841988    35336.857 
 5050000    0.7998878  -0.24932801    2.1848848    35364.978 
 5060000   0.80474016  -0.24829174     2.192093    35354.963 
 5070000   0.80406686   -0.2437501    2.1974639    35443.626 
 5080000    0.7955444  -0.23844684    2.1904458    35493.561 
 5090000   0.79611579  -0.23726142    2.1799748    35414.457 
 5100000   0.80317507   -0.2425087    2.1903691     35413.83 
 5110000   0.80011107  -0.23128377    2.1943156    35438.882 
 5120000   0.79363113  -0.25154222    2.1723741    35383.402 
 5130000   0.80285546   -0.2328472    2.1884562    35444.247 
 5140000    0.7997224  -0.22777814    2.1820514    35363.342 
 5150000   0.80471998   -0.2480103    2.2045053      35478.3 
 5160000   0.79482293  -0.24110019    2.1888369     35422.85 
 5170000   0.79876995  -0.24654246    2.1849479    35399.799 
 5180000   0.79700308  -0.24392359    2.1749665    35323.014 
 5190000   0.79835701  -0.23524424    2.1942745    35499.681 
 5200000   0.79674895  -0.22848422    2.1619848    35275.847 
 5210000   0.79801092  -0.24270249    2.1997937    35550.391 
 5220000    0.8032139  -0.24711255    2.1823687    35365.861 
 5230000   0.80041441  -0.24102448    2.1662412    35300.933 
 5240000   0.80183019  -0.23236113    2.1756936    35342.822 
 5250000   0.80256564  -0.24364226    2.1870742    35328.573 
 5260000   0.80117852  -0.23691614    2.2007583    35493.349 
 5270000   0.80075765  -0.23644019    2.1780399    35309.639 
 5280000   0.80365263  -0.24558067    2.2026234    35438.194 
 5290000    0.7958112  -0.23906587     2.182876    35326.258 
 5300000    0.8077806  -0.24041816      2.19894    35367.239 
 5310000   0.79201897  -0.23328951    2.1784908    35390.723 
 5320000   0.80012869  -0.23955185    2.1827334    35350.997 
 5330000   0.79837663  -0.24039322    2.1754994    35331.289 
 5340000   0.79990263  -0.24165803    2.1909899    35504.342 
 5350000   0.80094825  -0.24111425    2.1806525    35350.324 
 5360000    0.7935497  -0.23460967    2.1773926    35381.322 
 5370000   0.79633968  -0.23964663    2.1785678    35359.948 
 5380000   0.79956256  -0.24507696    2.2033506    35530.098 
 5390000   0.80027505  -0.23696219    2.1913644    35402.584 
 5400000   0.80167283   -0.2476181    2.1929595    35432.928 
 5410000   0.80238296  -0.23226325    2.1952138    35422.208 
 5420000   0.79717423  -0.24314227    2.1771833    35317.044 
 5430000   0.80027966  -0.23231494    2.1882989    35348.255 
 5440000   0.79792812  -0.25177698    2.1812587    35408.639 
 5450000   0.79875495  -0.23733402    2.1847358      35336.3 
 5460000   0.79775948  -0.24148814    2.2084047    35522.137 
 5470000   0.79332668  -0.24025769    2.1709707    35392.751 
 5480000   0.79959077  -0.24387183    2.1710834    35291.104 
 5490000   0.79889051  -0.23918669    2.1790397    35354.574 
 5500000   0.80234024  -0.23692967    2.1972428     35441.85 
 5510000    0.8020122  -0.24536848     2.199723    35447.674 
 5520000   0.80321668  -0.23812587    2.1830785    35382.684 
 5530000   0.79271649  -0.23375345    2.1745714     35369.15 
 5540000   0.79630726  -0.24369292    2.1830379    35358.807 
 5550000   0.80291306  -0.24468192    2.1753294    35278.375 
 5560000   0.79920634  -0.24176006    2.1829195    35339.667 
 5570000   0.79226428  -0.24032328    2.1732569    35358.371 
 5580000   0.79906378  -0.24026012    2.1743363    35343.214 
 5590000   0.79566409   -0.2407241    2.1732993    35312.252 
 5600000   0.80247237  -0.23418291    2.1847216    35344.776 
 5610000   0.79573086   -0.2475175    2.1658108    35335.711 
 5620000   0.79992799  -0.24490637    2.1778934    35334.274 
 5630000   0.80291767  -0.24061086    2.1815018    35323.133 
 5640000   0.79481635  -0.24294609    2.1575591    35262.718 
 5650000   0.79643422  -0.24767197    2.1648139    35316.707 
 5660000   0.80355751  -0.23886006    2.1819772    35327.822 
 5670000    0.8044321  -0.24948998    2.1960645    35399.329 
 5680000   0.79619078  -0.24001268    2.1634044    35245.628 
 5690000   0.80345475  -0.23507536    2.1777689    35306.743 
 5700000    0.7980578  -0.23594376    2.2102195    35554.841 
 5710000   0.80099069  -0.24627885    2.1861288    35347.273 
 5720000   0.80368926   -0.2471442    2.1681141      35268.4 
 5730000   0.80216906  -0.23781421    2.1959062    35452.198 
 5740000   0.79922767  -0.24594681     2.169077    35298.991 
 5750000   0.80194784  -0.24643382    2.1797154    35373.028 
 5760000   0.79805791   -0.2345837    2.1754407    35334.546 
 5770000   0.79893161  -0.24239083    2.1720561    35321.414 
 5780000   0.79665789  -0.23922122    2.1792406    35406.588 
 5790000   0.80078312  -0.23634813    2.1846942    35318.457 
 5800000    0.8008646  -0.24224648    2.1920994    35431.885 
 5810000   0.79768614  -0.25077053    2.1642345    35301.693 
 5820000   0.80332529  -0.24030164    2.1923002     35385.68 
 5830000   0.80405656   -0.2376686    2.1792179     35350.09 
 5840000   0.80221832  -0.23937223    2.1888983    35398.407 
 5850000   0.80379689  -0.24207429    2.1976204    35400.793 
 5860000   0.80415394  -0.25269407    2.1923072    35470.101 
 5870000   0.79897293  -0.24120174    2.1961456    35437.837 
 5880000   0.79844301  -0.23968081    2.1894855    35360.376 
 5890000   0.80280038  -0.24084314    2.1923335    35402.745 
 5900000   0.79399081  -0.24143745    2.1931048    35421.296 
 5910000   0.79896478   -0.2430782    2.1768398    35340.792 
 5920000   0.79645747  -0.25037029    2.1698957    35321.834 
 5930000   0.79559911  -0.24297709    2.1696909    35341.803 
 5940000   0.79488594  -0.24955497    2.1906301     35403.81 
 5950000   0.80063887  -0.24344589    2.1715873    35310.381 
 5960000   0.79219488  -0.22899738    2.1798561    35391.308 
 5970000   0.80434489  -0.24739776    2.2028248    35483.237 
 5980000   0.79466497  -0.24095351    2.1797814    35414.413 
 5990000   0.79649438  -0.23689388     2.198796    35484.909 
 6000000   0.79716411  -0.23388678    2.1854828    35413.752 
 6010000   0.79848272  -0.23993149    2.1718918     35335.22 
 6020000   0.79274731  -0.24119548    2.1701033    35376.363 
 6030000    0.8024548  -0.24988852    2.1783698    35312.261 
 6040000   0.80061382  -0.23845839     2.191272     35437.08 
 6050000    0.8039271  -0.23538096     2.185313    35354.969 
 6060000   0.80404833  -0.24292249    2.1789945    35303.885 
 6070000   0.80537771  -0.24536892    2.2054945    35451.365 
 6080000   0.80250684  -0.24243564    2.1974937    35392.561 
 6090000   0.80298827  -0.23933094    2.1960142    35396.952 
 6100000   0.79470388  -0.24547069    2.1640495    35291.857 
 6110000   0.80021479  -0.24075461    2.1823322    35370.118 
 6120000   0.80418388  -0.23878217    2.1926333    35385.478 
 6130000   0.80541391  -0.24694566    2.2020973    35453.725 
 6140000   0.80123011  -0.23666246    2.1768848    35284.476 
 6150000   0.79737227  -0.24499775    2.1646532    35295.275 
 6160000   0.80252194  -0.24071921    2.1852294    35404.992 
 6170000   0.80187448  -0.24844693     2.195086    35414.521 
 6180000    0.7952566  -0.23293812    2.1871499    35383.788 
 6190000   0.80464672  -0.24971811    2.1731885    35250.258 
 6200000    0.8041549  -0.24221523    2.2010083    35470.253 
 6210000   0.79237451   -0.2350107    2.1888898    35494.469 
 6220000   0.79998174  -0.24549367    2.1783109    35337.781 
 6230000   0.79722987  -0.24306275    2.1668262    35295.271 
 6240000   0.79668993  -0.23100912    2.1900803    35431.886 
 6250000    0.8042535  -0.24337546    2.2180308     35567.62 
 6260000    0.8044333  -0.24168809    2.2051874    35455.902 
 6270000   0.80224509  -0.24266183    2.1911075    35436.163 
 6280000   0.80008602  -0.23910808    2.1882962    35382.355 
 6290000   0.80283957  -0.23476195    2.1744835    35315.616 
 6300000   0.80233137  -0.25250226    2.1991879    35446.777 
 6310000   0.79987166  -0.24446423    2.1835173     35405.73 
 6320000   0.79218164  -0.24371144    2.1786548    35431.803 
 6330000   0.80334799  -0.24014858    2.1989954    35422.681 
 6340000   0.79830338  -0.23997013    2.1848738    35403.385 
 6350000   0.79885178  -0.24234541    2.1886903    35414.632 
 6360000   0.80315319  -0.24890708    2.1927437    35392.185 
 6370000   0.80773931   -0.2385285    2.2139752    35496.631 
 6380000   0.79953264  -0.24467204    2.1845268    35412.137 
 6390000    0.7962639  -0.24050375    2.1945682     35497.04 
 6400000   0.80464725  -0.23970132    2.2054689    35496.989 
 6410000   0.79770318  -0.23985255    2.1865979    35404.432 
 6420000   0.80110668  -0.24951969    2.1648426    35248.819 
 6430000   0.80063569  -0.23518503    2.2030323    35484.764 
 6440000    0.7997602  -0.24457988    2.1997493    35472.009 
 6450000   0.79159912  -0.24732614    2.1629046    35360.734 
 6460000   0.79376024  -0.23119706    2.1730339     35346.75 
 6470000   0.79967161  -0.24556951    2.1747627    35344.717 
 6480000   0.79394578  -0.23375704    2.1862804    35423.017 
 6490000   0.80338248  -0.23482062    2.1753191    35343.419 
 6500000   0.79561387  -0.24151395    2.1739522    35358.395 
 6510000   0.80279905  -0.25111521     2.176744    35327.815 
 6520000   0.79914466  -0.23809571     2.162936    35293.255 
 6530000    0.7983357  -0.23743349    2.1740044    35322.995 
 6540000   0.79096018  -0.24242378    2.1770015    35339.472 
 6550000   0.80431122  -0.24141722    2.1800273     35323.82 
 6560000   0.80150229  -0.23058937    2.2103578    35516.315 
 6570000   0.80026228  -0.23814947    2.1602478     35263.79 
 6580000   0.80112728   -0.2455443    2.1963808     35415.89 
 6590000   0.80142672  -0.24420239    2.1716841    35298.944 
 6600000   0.79913488  -0.24170653    2.1746408    35279.555 
 6610000   0.79878152    -0.239537    2.1790473    35401.895 
 6620000   0.80043628  -0.23510345    2.1933403    35413.794 
 6630000   0.80366576  -0.24498976    2.1873822    35349.511 
 6640000   0.79903783  -0.23871729    2.1697302    35261.527 
 6650000   0.80516175  -0.24247408    2.1737796    35301.373 
 6660000   0.79623529  -0.23950596    2.1750248    35392.962 
 6670000   0.79313232  -0.24127652    2.1730141     35350.45 
 6680000   0.80114414  -0.25127472    2.1809034    35322.652 
 6690000   0.79870264  -0.24278355    2.1758625    35302.728 
 6700000   0.80215999  -0.23352015    2.1867659    35348.555 
 6710000   0.80583842  -0.23523849    2.1896302    35373.175 
 6720000   0.80213729  -0.24221912    2.1665779    35257.547 
 6730000   0.79897516  -0.23819375    2.1893852    35426.099 
 6740000    0.8057425  -0.24755311    2.1798325    35283.991 
 6750000   0.80215008  -0.23436095    2.1730356    35275.573 
 6760000   0.79986555  -0.23786037    2.1800516    35350.727 
 6770000   0.80463397  -0.24289819    2.2002894     35415.45 
 6780000   0.79956302  -0.22943765    2.1866316    35418.552 
 6790000   0.80273779  -0.24729039     2.204491    35446.028 
 6800000   0.80157533  -0.24256352    2.1940214    35404.134 
 6810000   0.79823091  -0.23870024    2.1800168    35346.319 
 6820000   0.80406349  -0.24900434    2.1837312    35289.306 
 6830000   0.79693874  -0.24254759    2.1917533    35481.247 
 6840000   0.80010856  -0.25340297    2.1891626    35370.085 
 6850000   0.79496267  -0.23654712    2.1850595    35413.473 
 6860000   0.80086175  -0.24000611    2.1972178    35444.207 
 6870000   0.79906861   -0.2427386    2.1982021    35485.608 
 6880000   0.80443586  -0.23851806    2.2004284    35462.993 
 6890000   0.79907187  -0.24006642    2.1609641      35224.7 
 6900000   0.79848402  -0.24233724    2.1838788    35346.244 
 6910000   0.80311256  -0.24557803    2.2035177        35429 
 6920000   0.79758067  -0.23839426    2.1927165    35425.742 
 6930000   0.80495454  -0.24339418    2.1913713    35347.673 
 6940000   0.80269775  -0.25335167    2.1757619    35303.146 
 6950000   0.79869783  -0.24485218    2.1777872    35318.224 
 6960000   0.79980794  -0.24341378    2.1809784    35358.719 
 6970000   0.80389011  -0.25310224    2.1972246    35433.653 
 6980000   0.80195631  -0.23972029    2.1845094    35337.736 
 6990000   0.80929485  -0.24987191    2.2034061    35416.783 
 7000000   0.80816457  -0.23708967    2.2043385    35399.607 
Loop time of 4920.14 on 216 procs for 5000000 steps with 28900 atoms

Performance: 439011.569 tau/day, 1016.230 timesteps/s
99.9% CPU use with 216 MPI tasks x 1 OpenMP threads

MPI task timing breakdown:
Section |  min time  |  avg time  |  max time  |%varavg| %total
---------------------------------------------------------------
Pair    | 434.62     | 496.66     | 602.7      | 148.8 | 10.09
Bond    | 8.0081     | 9.6877     | 11.907     |  23.0 |  0.20
Neigh   | 650.2      | 702.92     | 735.87     |  53.7 | 14.29
Comm    | 1015.5     | 1171.6     | 1363.2     | 172.0 | 23.81
Output  | 2.2557     | 2.2607     | 2.2977     |   0.2 |  0.05
Modify  | 2088.1     | 2258.1     | 2423       | 138.9 | 45.90
Other   |            | 278.9      |            |       |  5.67

Nlocal:    133.796 ave 237 max 110 min
Histogram: 50 109 28 10 9 3 2 2 1 2
Nghost:    974.417 ave 1217 max 874 min
Histogram: 24 60 41 36 23 18 9 3 0 2
Neighs:    4879.34 ave 11847 max 3371 min
Histogram: 63 101 24 11 6 5 2 1 1 2

Total # of neighbors = 1053938
Ave neighs/atom = 36.4684
Ave special neighs/atom = 0.602076
Neighbor list builds = 693542
Dangerous builds = 27
System init for write_restart ...
Setting atom values ...
  9000 settings made for charge
Setting atom values ...
  9000 settings made for charge
Setting atom values ...
  7600 settings made for charge
Setting atom values ...
  1900 settings made for charge
System init for write_data ...
PPPM initialization ...
  using 12-bit tables for long-range coulomb (src/kspace.cpp:332)
  G vector (1/distance) = 1.26818
  grid = 135 135 135
  stencil order = 5
  estimated absolute RMS force accuracy = 0.00013496
  estimated relative force accuracy = 0.00013496
  using double precision FFTW3
  3d grid and FFT values/proc = 24389 12960
WARNING: Neighbor exclusions used with KSpace solver may give inconsistent Coulombic energies (src/neighbor.cpp:486)
Neighbor list info ...
  update every 1 steps, delay 0 steps, check yes
  max neighbors/atom: 2000, page size: 100000
  master list distance cutoff = 2.8
  ghost atom cutoff = 2.8
  binsize = 1.4, bins = 24 24 24
  2 neighbor lists, perpetual/occasional/extra = 2 0 0
  (1) pair lj/cut, perpetual
      attributes: half, newton on
      pair build: half/bin/newton
      stencil: half/bin/3d/newton
      bin: standard
  (2) pair coul/long, perpetual, skip from (1)
      attributes: half, newton on
      pair build: skip
      stencil: none
      bin: none
PPPM initialization ...
  using 12-bit tables for long-range coulomb (src/kspace.cpp:332)
  G vector (1/distance) = 1.26818
  grid = 135 135 135
  stencil order = 5
  estimated absolute RMS force accuracy = 0.00013496
  estimated relative force accuracy = 0.00013496
  using double precision FFTW3
  3d grid and FFT values/proc = 24389 12960
WARNING: Neighbor exclusions used with KSpace solver may give inconsistent Coulombic energies (src/neighbor.cpp:486)
Neighbor list info ...
  update every 1 steps, delay 0 steps, check yes
  max neighbors/atom: 2000, page size: 100000
  master list distance cutoff = 2.8
  ghost atom cutoff = 2.8
  binsize = 1.4, bins = 24 24 24
  2 neighbor lists, perpetual/occasional/extra = 2 0 0
  (1) pair lj/cut, perpetual
      attributes: half, newton on
      pair build: half/bin/newton
      stencil: half/bin/3d/newton
      bin: standard
  (2) pair coul/long, perpetual, skip from (1)
      attributes: half, newton on
      pair build: skip
      stencil: none
      bin: none
Setting up Verlet run ...
  Unit style    : lj
  Current step  : 7000000
  Time step     : 0.005
Per MPI rank memory allocation (min/avg/max) = 17.05 | 17.59 | 18.28 Mbytes
Step Temp Press TotEng Volume 
 7000000   0.80816457   -2.5369271    15.348153    35399.607 
WARNING: FENE bond too long: 7000034 8613 8614 1.43497 (src/MOLECULE/bond_fene.cpp:90)
WARNING: FENE bond too long: 7000035 8613 8614 1.43885 (src/MOLECULE/bond_fene.cpp:90)
WARNING: FENE bond too long: 7000056 9614 9615 1.42409 (src/MOLECULE/bond_fene.cpp:90)
WARNING: FENE bond too long: 7000057 9614 9615 1.44327 (src/MOLECULE/bond_fene.cpp:90)
WARNING: FENE bond too long: 7000058 9614 9615 1.45294 (src/MOLECULE/bond_fene.cpp:90)
WARNING: FENE bond too long: 7000059 14235 14236 1.42482 (src/MOLECULE/bond_fene.cpp:90)
WARNING: FENE bond too long: 7000059 9614 9615 1.4543 (src/MOLECULE/bond_fene.cpp:90)
WARNING: FENE bond too long: 7000060 14235 14236 1.45041 (src/MOLECULE/bond_fene.cpp:90)
WARNING: FENE bond too long: 7000060 9614 9615 1.44948 (src/MOLECULE/bond_fene.cpp:90)
WARNING: FENE bond too long: 7000061 14235 14236 1.45629 (src/MOLECULE/bond_fene.cpp:90)
WARNING: FENE bond too long: 7000061 9614 9615 1.44114 (src/MOLECULE/bond_fene.cpp:90)
WARNING: FENE bond too long: 7000062 9614 9615 1.43224 (src/MOLECULE/bond_fene.cpp:90)
WARNING: FENE bond too long: 7000062 14235 14236 1.44258 (src/MOLECULE/bond_fene.cpp:90)
WARNING: FENE bond too long: 7000063 9614 9615 1.42594 (src/MOLECULE/bond_fene.cpp:90)
WARNING: FENE bond too long: 7000063 13446 13447 1.42446 (src/MOLECULE/bond_fene.cpp:90)
WARNING: FENE bond too long: 7000064 9614 9615 1.4255 (src/MOLECULE/bond_fene.cpp:90)
WARNING: FENE bond too long: 7000064 13446 13447 1.44056 (src/MOLECULE/bond_fene.cpp:90)
WARNING: FENE bond too long: 7000065 9614 9615 1.43329 (src/MOLECULE/bond_fene.cpp:90)
WARNING: FENE bond too long: 7000065 13446 13447 1.45967 (src/MOLECULE/bond_fene.cpp:90)
WARNING: FENE bond too long: 7000066 9614 9615 1.44882 (src/MOLECULE/bond_fene.cpp:90)
WARNING: FENE bond too long: 7000066 13446 13447 1.48486 (src/MOLECULE/bond_fene.cpp:90)
WARNING: FENE bond too long: 7000067 9614 9615 1.46841 (src/MOLECULE/bond_fene.cpp:90)
WARNING: FENE bond too long: 7000067 13446 13447 1.51701 (src/MOLECULE/bond_fene.cpp:90)
WARNING: FENE bond too long: 7000068 9614 9615 1.48713 (src/MOLECULE/bond_fene.cpp:90)
WARNING: FENE bond too long: 7000068 13446 13447 1.55059 (src/MOLECULE/bond_fene.cpp:90)
WARNING: FENE bond too long: 7000069 9614 9615 1.50073 (src/MOLECULE/bond_fene.cpp:90)
WARNING: FENE bond too long: 7000069 13446 13447 1.57702 (src/MOLECULE/bond_fene.cpp:90)
WARNING: FENE bond too long: 7000070 9614 9615 1.50671 (src/MOLECULE/bond_fene.cpp:90)
WARNING: FENE bond too long: 7000070 13446 13447 1.59027 (src/MOLECULE/bond_fene.cpp:90)
WARNING: FENE bond too long: 7000071 9614 9615 1.50485 (src/MOLECULE/bond_fene.cpp:90)
WARNING: FENE bond too long: 7000071 13446 13447 1.58796 (src/MOLECULE/bond_fene.cpp:90)
WARNING: FENE bond too long: 7000072 9614 9615 1.49694 (src/MOLECULE/bond_fene.cpp:90)
WARNING: FENE bond too long: 7000072 13446 13447 1.57031 (src/MOLECULE/bond_fene.cpp:90)
WARNING: FENE bond too long: 7000073 9614 9615 1.48597 (src/MOLECULE/bond_fene.cpp:90)
WARNING: FENE bond too long: 7000073 13446 13447 1.53975 (src/MOLECULE/bond_fene.cpp:90)
WARNING: FENE bond too long: 7000074 9614 9615 1.47508 (src/MOLECULE/bond_fene.cpp:90)
WARNING: FENE bond too long: 7000074 13446 13447 1.50083 (src/MOLECULE/bond_fene.cpp:90)
WARNING: FENE bond too long: 7000075 9614 9615 1.46671 (src/MOLECULE/bond_fene.cpp:90)
WARNING: FENE bond too long: 7000075 13446 13447 1.45998 (src/MOLECULE/bond_fene.cpp:90)
WARNING: FENE bond too long: 7000076 9614 9615 1.46185 (src/MOLECULE/bond_fene.cpp:90)
WARNING: FENE bond too long: 7000076 13446 13447 1.42532 (src/MOLECULE/bond_fene.cpp:90)
WARNING: FENE bond too long: 7000077 9614 9615 1.45983 (src/MOLECULE/bond_fene.cpp:90)
WARNING: FENE bond too long: 7000078 9614 9615 1.45882 (src/MOLECULE/bond_fene.cpp:90)
WARNING: FENE bond too long: 7000079 9614 9615 1.4568 (src/MOLECULE/bond_fene.cpp:90)
WARNING: FENE bond too long: 7000079 13446 13447 1.42773 (src/MOLECULE/bond_fene.cpp:90)
WARNING: FENE bond too long: 7000080 9614 9615 1.45211 (src/MOLECULE/bond_fene.cpp:90)
WARNING: FENE bond too long: 7000080 13446 13447 1.45233 (src/MOLECULE/bond_fene.cpp:90)
WARNING: FENE bond too long: 7000081 9614 9615 1.44354 (src/MOLECULE/bond_fene.cpp:90)
WARNING: FENE bond too long: 7000081 13446 13447 1.47279 (src/MOLECULE/bond_fene.cpp:90)
WARNING: FENE bond too long: 7000082 9614 9615 1.42998 (src/MOLECULE/bond_fene.cpp:90)
WARNING: FENE bond too long: 7000082 13446 13447 1.48318 (src/MOLECULE/bond_fene.cpp:90)
WARNING: FENE bond too long: 7000083 13446 13447 1.4803 (src/MOLECULE/bond_fene.cpp:90)
WARNING: FENE bond too long: 7000084 13446 13447 1.46294 (src/MOLECULE/bond_fene.cpp:90)
WARNING: FENE bond too long: 7000085 20729 20730 1.42556 (src/MOLECULE/bond_fene.cpp:90)
WARNING: FENE bond too long: 7000085 13446 13447 1.43116 (src/MOLECULE/bond_fene.cpp:90)
WARNING: FENE bond too long: 7000094 8605 8606 1.42455 (src/MOLECULE/bond_fene.cpp:90)
WARNING: FENE bond too long: 7000095 8605 8606 1.42659 (src/MOLECULE/bond_fene.cpp:90)
WARNING: FENE bond too long: 7000105 4507 4508 1.4258 (src/MOLECULE/bond_fene.cpp:90)
WARNING: FENE bond too long: 7000107 9614 9615 1.4381 (src/MOLECULE/bond_fene.cpp:90)
WARNING: FENE bond too long: 7000108 9614 9615 1.46051 (src/MOLECULE/bond_fene.cpp:90)
WARNING: FENE bond too long: 7000109 9614 9615 1.47021 (src/MOLECULE/bond_fene.cpp:90)
WARNING: FENE bond too long: 7000110 9614 9615 1.46502 (src/MOLECULE/bond_fene.cpp:90)
WARNING: FENE bond too long: 7000111 9614 9615 1.44543 (src/MOLECULE/bond_fene.cpp:90)
WARNING: FENE bond too long: 7000122 9614 9615 1.45377 (src/MOLECULE/bond_fene.cpp:90)
WARNING: FENE bond too long: 7000123 9614 9615 1.48349 (src/MOLECULE/bond_fene.cpp:90)
WARNING: FENE bond too long: 7000124 9614 9615 1.50167 (src/MOLECULE/bond_fene.cpp:90)
WARNING: FENE bond too long: 7000125 9614 9615 1.50279 (src/MOLECULE/bond_fene.cpp:90)
WARNING: FENE bond too long: 7000126 9614 9615 1.48505 (src/MOLECULE/bond_fene.cpp:90)
WARNING: FENE bond too long: 7000127 9614 9615 1.44957 (src/MOLECULE/bond_fene.cpp:90)
WARNING: FENE bond too long: 7000136 9614 9615 1.42745 (src/MOLECULE/bond_fene.cpp:90)
WARNING: FENE bond too long: 7000137 9614 9615 1.44251 (src/MOLECULE/bond_fene.cpp:90)
WARNING: FENE bond too long: 7000138 9614 9615 1.44015 (src/MOLECULE/bond_fene.cpp:90)
WARNING: FENE bond too long: 7000138 3410 3411 1.44552 (src/MOLECULE/bond_fene.cpp:90)
WARNING: FENE bond too long: 7000139 3410 3411 1.46982 (src/MOLECULE/bond_fene.cpp:90)
WARNING: FENE bond too long: 7000139 9614 9615 1.42526 (src/MOLECULE/bond_fene.cpp:90)
WARNING: FENE bond too long: 7000140 3410 3411 1.47212 (src/MOLECULE/bond_fene.cpp:90)
WARNING: FENE bond too long: 7000141 3410 3411 1.44656 (src/MOLECULE/bond_fene.cpp:90)
WARNING: FENE bond too long: 7000143 19615 19616 1.43606 (src/MOLECULE/bond_fene.cpp:90)
WARNING: FENE bond too long: 7000144 19615 19616 1.43387 (src/MOLECULE/bond_fene.cpp:90)
WARNING: FENE bond too long: 7000150 19616 19617 1.42733 (src/MOLECULE/bond_fene.cpp:90)
WARNING: FENE bond too long: 7000151 19616 19617 1.46097 (src/MOLECULE/bond_fene.cpp:90)
WARNING: FENE bond too long: 7000152 19616 19617 1.4783 (src/MOLECULE/bond_fene.cpp:90)
WARNING: FENE bond too long: 7000153 19616 19617 1.48136 (src/MOLECULE/bond_fene.cpp:90)
WARNING: FENE bond too long: 7000153 2670 2671 1.42335 (src/MOLECULE/bond_fene.cpp:90)
WARNING: FENE bond too long: 7000154 19616 19617 1.47412 (src/MOLECULE/bond_fene.cpp:90)
WARNING: FENE bond too long: 7000155 19616 19617 1.45954 (src/MOLECULE/bond_fene.cpp:90)
WARNING: FENE bond too long: 7000156 19616 19617 1.43597 (src/MOLECULE/bond_fene.cpp:90)
WARNING: FENE bond too long: 7000177 8605 8606 1.43591 (src/MOLECULE/bond_fene.cpp:90)
WARNING: FENE bond too long: 7000178 8605 8606 1.45427 (src/MOLECULE/bond_fene.cpp:90)
WARNING: FENE bond too long: 7000178 6070 6071 1.4491 (src/MOLECULE/bond_fene.cpp:90)
WARNING: FENE bond too long: 7000179 8605 8606 1.44947 (src/MOLECULE/bond_fene.cpp:90)
WARNING: FENE bond too long: 7000179 6070 6071 1.48139 (src/MOLECULE/bond_fene.cpp:90)
WARNING: FENE bond too long: 7000180 6070 6071 1.48903 (src/MOLECULE/bond_fene.cpp:90)
WARNING: FENE bond too long: 7000181 6070 6071 1.4709 (src/MOLECULE/bond_fene.cpp:90)
WARNING: FENE bond too long: 7000182 6070 6071 1.42642 (src/MOLECULE/bond_fene.cpp:90)
WARNING: FENE bond too long: 7000205 8603 8604 1.42933 (src/MOLECULE/bond_fene.cpp:90)
WARNING: FENE bond too long: 7000206 8603 8604 1.44258 (src/MOLECULE/bond_fene.cpp:90)
WARNING: FENE bond too long: 7000207 8603 8604 1.43511 (src/MOLECULE/bond_fene.cpp:90)
WARNING: FENE bond too long: 7000259 9614 9615 1.43104 (src/MOLECULE/bond_fene.cpp:90)
WARNING: FENE bond too long: 7000260 9614 9615 1.44984 (src/MOLECULE/bond_fene.cpp:90)
WARNING: FENE bond too long: 7000261 9614 9615 1.4486 (src/MOLECULE/bond_fene.cpp:90)
WARNING: FENE bond too long: 7000262 9614 9615 1.4281 (src/MOLECULE/bond_fene.cpp:90)
WARNING: FENE bond too long: 7000272 9614 9615 1.42629 (src/MOLECULE/bond_fene.cpp:90)
WARNING: FENE bond too long: 7000273 9614 9615 1.44736 (src/MOLECULE/bond_fene.cpp:90)
WARNING: FENE bond too long: 7000274 9614 9615 1.45172 (src/MOLECULE/bond_fene.cpp:90)
WARNING: FENE bond too long: 7000275 9614 9615 1.4385 (src/MOLECULE/bond_fene.cpp:90)
WARNING: FENE bond too long: 7000325 9614 9615 1.42615 (src/MOLECULE/bond_fene.cpp:90)
WARNING: FENE bond too long: 7000326 9614 9615 1.44342 (src/MOLECULE/bond_fene.cpp:90)
WARNING: FENE bond too long: 7000327 9614 9615 1.44555 (src/MOLECULE/bond_fene.cpp:90)
WARNING: FENE bond too long: 7000328 9614 9615 1.43192 (src/MOLECULE/bond_fene.cpp:90)
WARNING: FENE bond too long: 7000342 9614 9615 1.42309 (src/MOLECULE/bond_fene.cpp:90)
WARNING: FENE bond too long: 7000356 9614 9615 1.44245 (src/MOLECULE/bond_fene.cpp:90)
WARNING: FENE bond too long: 7000357 9614 9615 1.44646 (src/MOLECULE/bond_fene.cpp:90)
WARNING: FENE bond too long: 7000358 9614 9615 1.43279 (src/MOLECULE/bond_fene.cpp:90)
WARNING: FENE bond too long: 7000371 9614 9615 1.4359 (src/MOLECULE/bond_fene.cpp:90)
WARNING: FENE bond too long: 7000372 9614 9615 1.4473 (src/MOLECULE/bond_fene.cpp:90)
WARNING: FENE bond too long: 7000373 9614 9615 1.44238 (src/MOLECULE/bond_fene.cpp:90)
 7010000   0.79129836  -0.34640206    5.7645492    35399.607 
 7020000   0.79889309  -0.23615789    5.7067639    35399.607 
 7030000   0.80020033  -0.15185785    5.6428265    35399.607 
 7040000   0.80087559  -0.12878453    5.6315275    35399.607 
 7050000   0.79462202  -0.18237539    5.6197267    35399.607 
 7060000    0.7934357  -0.15645229    5.5986974    35399.607 
 7070000   0.79789518  -0.10660445    5.6194201    35399.607 
 7080000   0.80676499  -0.17075969    5.6332351    35399.607 
 7090000   0.80049108  -0.09307381    5.6144253    35399.607 
 7100000    0.7961432   -0.1953134    5.6193564    35399.607 
 7110000   0.80544338 -0.078759284    5.6151832    35399.607 
 7120000   0.80156892  -0.16899857    5.6226957    35399.607 
 7130000   0.79617509  -0.16192505    5.6054922    35399.607 
 7140000   0.79904718  -0.17399543    5.6007815    35399.607 
 7150000   0.79882171   -0.1291807    5.6044661    35399.607 
 7160000   0.80022657  -0.17896125    5.6091739    35399.607 
 7170000   0.79758068 -0.076323924    5.5919139    35399.607 
 7180000   0.79325485  -0.11398189    5.6069746    35399.607 
 7190000   0.79868723  -0.12012219    5.6134502    35399.607 
 7200000   0.79849331  -0.12083403    5.5983028    35399.607 
 7210000   0.79690227  -0.11285051     5.597576    35399.607 
 7220000   0.79774283  -0.14797983    5.5921105    35399.607 
 7230000   0.79641238  -0.12001112    5.6057838    35399.607 
 7240000   0.80370968  -0.11299988    5.6051809    35399.607 
 7250000   0.79618991 -0.050370425    5.5952526    35399.607 
 7260000   0.79798129  -0.12618645    5.6029964    35399.607 
 7270000   0.80249316  -0.16971735    5.5916301    35399.607 
 7280000   0.80581787  -0.10826304    5.5973424    35399.607 
 7290000   0.79809404  -0.11361058    5.6077828    35399.607 
 7300000   0.79871476 -0.083758448    5.5964525    35399.607 
 7310000   0.80423243  -0.15510558    5.6317179    35399.607 
 7320000   0.81177793  -0.16255081    5.6225228    35399.607 
 7330000    0.7947967   -0.1694739    5.6032619    35399.607 
 7340000   0.80358812  -0.12996108    5.5998908    35399.607 
 7350000   0.79653904  -0.11934907    5.5795993    35399.607 
 7360000   0.80045859  -0.11413411    5.6053098    35399.607 
 7370000    0.8047935  -0.16408645    5.6097647    35399.607 
 7380000   0.80020039  -0.10088079    5.5977205    35399.607 
 7390000   0.79661998 -0.046027437    5.5929641    35399.607 
 7400000   0.80170178  -0.14352472    5.6118216    35399.607 
 7410000   0.80300863  -0.14419502    5.5961598    35399.607 
 7420000   0.80535181  -0.16069942    5.6037598    35399.607 
 7430000   0.80287067 -0.057815014    5.6156945    35399.607 
 7440000    0.7991215  -0.13981163    5.5973278    35399.607 
 7450000   0.80036351  -0.12267322    5.6028914    35399.607 
 7460000   0.79468036 -0.080128079    5.5996283    35399.607 
 7470000   0.80253118  -0.13788182    5.5978439    35399.607 
 7480000   0.80305921  -0.13626492    5.6019858    35399.607 
 7490000   0.80173776  -0.12045735    5.5985263    35399.607 
 7500000   0.80539808  -0.13448006    5.6064008    35399.607 
 7510000   0.80362114 -0.066270186    5.6169732    35399.607 
 7520000   0.79531326   -0.1350299     5.598868    35399.607 
 7530000    0.8035685  -0.13272905    5.6111727    35399.607 
 7540000   0.80507556   -0.1670358    5.5987532    35399.607 
 7550000   0.79981896 -0.094807073    5.5941022    35399.607 
 7560000   0.79739016 -0.026293413    5.5957685    35399.607 
 7570000   0.79847239  -0.15001879    5.5946376    35399.607 
 7580000   0.80431111  -0.11544432    5.6117424    35399.607 
 7590000   0.80636431  -0.14592793    5.6172814    35399.607 
 7600000   0.80223418  -0.11315772    5.6053662    35399.607 
 7610000   0.80033077  -0.10121831    5.6035367    35399.607 
 7620000   0.80822272 -0.094097822    5.5974253    35399.607 
 7630000   0.79396609  -0.07020722    5.5925001    35399.607 
 7640000   0.79583615 -0.064331491    5.6026713    35399.607 
 7650000   0.80134434 -0.082523149    5.5995073    35399.607 
 7660000    0.8064179 -0.099238693    5.6191405    35399.607 
 7670000   0.79518878  -0.17231745    5.5779087    35399.607 
 7680000   0.79977943  -0.15056304    5.6111042    35399.607 
 7690000   0.79892042  -0.10290054    5.6210688    35399.607 
 7700000   0.80761333  -0.14354951    5.6138783    35399.607 
 7710000   0.79688177  -0.10598506     5.592144    35399.607 
 7720000   0.79580473  0.014248997    5.5874136    35399.607 
 7730000   0.80212803  -0.10107913    5.6008765    35399.607 
 7740000   0.80986819  -0.07861559    5.6120589    35399.607 
 7750000   0.79805971 -0.096018569    5.6098897    35399.607 
 7760000    0.7991225   -0.1111038    5.5943353    35399.607 
 7770000   0.79541078 -0.065968203    5.5907469    35399.607 
 7780000   0.79786487  -0.12949178    5.6011028    35399.607 
 7790000     0.801708 -0.067866682    5.5953207    35399.607 
 7800000   0.79176987  -0.20919949    5.5769692    35399.607 
 7810000   0.80020254  -0.12524124    5.6156884    35399.607 
 7820000   0.79774953 -0.086712527     5.588786    35399.607 
 7830000   0.80101961 -0.042238169    5.6018219    35399.607 
 7840000   0.79611475  -0.08637867    5.6045755    35399.607 
 7850000   0.79363052  -0.12544526    5.5805235    35399.607 
 7860000   0.80465866  -0.10259141    5.5958329    35399.607 
 7870000   0.80268795 -0.092705234     5.611519    35399.607 
 7880000   0.79624089  -0.14685788    5.5959667    35399.607 
 7890000   0.79774513  -0.10471194    5.6077475    35399.607 
 7900000   0.80094905 -0.077549101     5.607111    35399.607 
 7910000   0.80079762  -0.10238055    5.6070938    35399.607 
 7920000   0.79952282  -0.18688835    5.6002363    35399.607 
 7930000     0.796676  -0.12493719    5.5984229    35399.607 
 7940000   0.80431725 -0.098982882    5.6009244    35399.607 
 7950000   0.80487782  -0.10679177    5.5964088    35399.607 
 7960000   0.79589796  -0.10972443    5.5983123    35399.607 
 7970000   0.79795336  -0.09258487    5.6047593    35399.607 
 7980000   0.80588432 -0.087992108    5.6005694    35399.607 
 7990000   0.80371142  -0.07475943    5.5902425    35399.607 
 8000000   0.80267917 -0.089002994    5.5983031    35399.607 
 8010000   0.79704241  -0.15986636     5.592309    35399.607 
 8020000   0.79993162  -0.16044757    5.5879671    35399.607 
 8030000   0.80648638   -0.1283313    5.6106379    35399.607 
 8040000   0.80755687    -0.131317    5.5955096    35399.607 
 8050000   0.80169108  -0.08616547    5.5930971    35399.607 
 8060000   0.79798408  -0.17401769    5.5986755    35399.607 
 8070000   0.80317371  -0.22600586    5.5964177    35399.607 
 8080000   0.80277276  -0.14363822    5.5948899    35399.607 
 8090000    0.7983455  -0.14050804    5.5959641    35399.607 
 8100000   0.80340145  -0.13540964    5.5971413    35399.607 
 8110000   0.79910641 -0.064314871    5.5717364    35399.607 
 8120000   0.80331171  -0.15258298     5.597116    35399.607 
 8130000   0.79541079  -0.18921443    5.6091579    35399.607 
 8140000    0.8037226 -0.069124465    5.5973132    35399.607 
 8150000   0.79925728  -0.14707366    5.5951395    35399.607 
 8160000   0.80250965  -0.13924845    5.6214484    35399.607 
 8170000   0.79954058  -0.10269813    5.6004527    35399.607 
 8180000    0.8048347  -0.16107927    5.5922009    35399.607 
 8190000   0.79581318  -0.21057967    5.5965495    35399.607 
 8200000   0.79428402  -0.10871085     5.587527    35399.607 
 8210000   0.80032075  -0.15192329    5.6024071    35399.607 
 8220000   0.79793457  -0.10704204    5.5805699    35399.607 
 8230000   0.80735926  -0.13536109     5.622466    35399.607 
 8240000   0.80440328  -0.12628332    5.6131945    35399.607 
 8250000   0.79750929  -0.11121327    5.6060666    35399.607 
 8260000   0.79438064  -0.11320104    5.6033087    35399.607 
 8270000   0.79777811 -0.095242494    5.6002777    35399.607 
 8280000   0.80315294 -0.055877833    5.6045432    35399.607 
 8290000   0.79895201  -0.11001806    5.5960252    35399.607 
 8300000   0.80014637 -0.082808607    5.6015531    35399.607 
 8310000    0.7951463  -0.17208203    5.6001843    35399.607 
 8320000   0.80044676  -0.10694297     5.604316    35399.607 
 8330000   0.80051718  -0.15604784     5.605855    35399.607 
 8340000   0.80387627  -0.10521205    5.6228452    35399.607 
 8350000   0.80145309  -0.10564843    5.5897818    35399.607 
 8360000   0.79536346  -0.16199396    5.5953162    35399.607 
 8370000    0.7939464 -0.070345544    5.5890563    35399.607 
 8380000   0.79983084  -0.14335162    5.5848382    35399.607 
 8390000     0.804547  -0.08777156    5.6188756    35399.607 
 8400000   0.80527787  -0.10979632    5.6062699    35399.607 
 8410000   0.80327554 -0.098136853    5.5917622    35399.607 
 8420000   0.79917214  -0.13098974    5.5968377    35399.607 
 8430000    0.8028368  -0.14482696     5.598282    35399.607 
 8440000   0.80163127   -0.1369859    5.5918679    35399.607 
 8450000   0.80000292  -0.11654519    5.6196588    35399.607 
 8460000   0.80485211  -0.15590313    5.5857647    35399.607 
 8470000   0.80131205 -0.050981967    5.5961149    35399.607 
 8480000   0.79252082  -0.12187774    5.5766674    35399.607 
 8490000   0.80285816 -0.064142913    5.5913663    35399.607 
 8500000    0.7974402 -0.088910393    5.5753374    35399.607 
 8510000   0.80412946  -0.13276559    5.6049667    35399.607 
 8520000   0.80047801   -0.1089683    5.5917259    35399.607 
 8530000   0.80548381  -0.11278972    5.5992077    35399.607 
 8540000   0.79679114 -0.083022319    5.5923583    35399.607 
 8550000   0.79509091  -0.15907681    5.5821146    35399.607 
 8560000   0.79665859  -0.18554397    5.5929672    35399.607 
 8570000   0.79282057  -0.12994585    5.5854758    35399.607 
 8580000   0.79527127  -0.11771749     5.596129    35399.607 
 8590000   0.80039605  -0.13410484    5.5886063    35399.607 
 8600000   0.79651981  -0.06505916    5.5836548    35399.607 
 8610000   0.79881803  -0.18705716    5.5968346    35399.607 
 8620000   0.79648908 -0.049673697    5.5897102    35399.607 
 8630000   0.80307511  -0.23560284    5.6089395    35399.607 
 8640000   0.80396139 -0.087416489    5.5970376    35399.607 
 8650000   0.80059782  -0.17084702    5.6024355    35399.607 
 8660000   0.79700986  -0.20095423    5.5876182    35399.607 
 8670000   0.79815561 -0.088381501    5.5993446    35399.607 
 8680000   0.80020622  -0.14009518    5.5981158    35399.607 
 8690000   0.80024567 -0.056595594    5.5961373    35399.607 
 8700000   0.80054635  -0.10204034    5.5929458    35399.607 
 8710000   0.79677716  -0.10507958     5.586013    35399.607 
 8720000   0.80359201   -0.1472118    5.5987774    35399.607 
 8730000   0.79689509  -0.14144325    5.5864164    35399.607 
 8740000   0.80058733 -0.091059055    5.5977291    35399.607 
 8750000   0.80113505 -0.084636947    5.5984696    35399.607 
 8760000   0.79990196  -0.13767658    5.5996599    35399.607 
 8770000   0.80058573  -0.10944902    5.6013521    35399.607 
 8780000   0.80443282  -0.10675996    5.5985004    35399.607 
 8790000   0.79972635 -0.085717264    5.5798041    35399.607 
 8800000   0.79805659  -0.16276155    5.6015066    35399.607 
 8810000   0.80326148  -0.14703696    5.6090075    35399.607 
 8820000   0.79968478  -0.11837228    5.5957729    35399.607 
 8830000    0.8067272  -0.12516559    5.6047617    35399.607 
 8840000   0.80114373  -0.12720091    5.5948107    35399.607 
 8850000   0.79985164  -0.11171245    5.5927549    35399.607 
 8860000   0.80072125 -0.057025764    5.5932113    35399.607 
 8870000   0.80000218 -0.081789973    5.6106653    35399.607 
 8880000   0.79915065 -0.063670411    5.5886623    35399.607 
 8890000   0.79703791   -0.1887938    5.5899497    35399.607 
 8900000    0.7998852 -0.066262102    5.5899316    35399.607 
 8910000   0.79771075 -0.049157603    5.5882417    35399.607 
 8920000   0.79802421 -0.073756956    5.5877714    35399.607 
 8930000   0.79336321   -0.1756123    5.5900673    35399.607 
 8940000   0.79746419  -0.18584063    5.5966558    35399.607 
 8950000   0.80354849  -0.10403435    5.6003685    35399.607 
 8960000   0.79960636  -0.14090785     5.582227    35399.607 
 8970000   0.79872959  -0.22376159    5.5993283    35399.607 
 8980000   0.79657264  -0.17348853    5.5838424    35399.607 
 8990000   0.80379642  -0.13124826    5.6003788    35399.607 
 9000000   0.80511043 -0.082654615    5.5884946    35399.607 
 9010000    0.7937181 -0.079188585    5.5881278    35399.607 
 9020000   0.79600671  -0.19469632    5.5901633    35399.607 
 9030000   0.79506259  -0.13709083     5.598192    35399.607 
 9040000   0.80036148 -0.045048424    5.5792933    35399.607 
 9050000    0.8005977 -0.073756242    5.5964451    35399.607 
 9060000   0.79581317 -0.058627561    5.6085758    35399.607 
 9070000   0.79426176  -0.10003895     5.587463    35399.607 
 9080000   0.79392081  -0.10664738    5.5867725    35399.607 
 9090000   0.79786142  -0.15742555    5.5882726    35399.607 
 9100000   0.80493726  -0.10195482    5.6057989    35399.607 
 9110000   0.79453824  -0.16533568    5.5817174    35399.607 
 9120000   0.80290456  -0.20214757    5.5975379    35399.607 
 9130000   0.80364892  -0.11016812    5.5838706    35399.607 
 9140000   0.80309541  -0.20444431    5.6036616    35399.607 
 9150000    0.8026525  -0.13094167    5.5958638    35399.607 
 9160000   0.79477659 -0.087940654    5.5895755    35399.607 
 9170000   0.79888339  -0.17352218    5.6011903    35399.607 
 9180000    0.8004653  -0.12613617    5.6091947    35399.607 
 9190000   0.80286646  -0.11997641    5.6052447    35399.607 
 9200000   0.80277711 -0.086329346    5.5922545    35399.607 
 9210000   0.80347544  -0.15454581    5.6145635    35399.607 
 9220000   0.79693618 -0.081001952     5.595047    35399.607 
 9230000    0.7933098 -0.073834261    5.5834094    35399.607 
 9240000   0.79912131  -0.12997461    5.5927095    35399.607 
 9250000   0.80810902  -0.12399391    5.6156849    35399.607 
 9260000   0.79973788  -0.11849213    5.6002753    35399.607 
 9270000   0.80409105 -0.058773869    5.6181366    35399.607 
 9280000   0.80110729  -0.13577012    5.5799841    35399.607 
 9290000    0.8033929 -0.098092219    5.5903852    35399.607 
 9300000   0.80465453  -0.13121088    5.5961728    35399.607 
 9310000   0.79756595 -0.075745411    5.5944046    35399.607 
 9320000    0.7994884 -0.054940345    5.6097528    35399.607 
 9330000   0.80094022  -0.19192152     5.583713    35399.607 
 9340000   0.80139304  -0.14533204    5.5889449    35399.607 
 9350000   0.80267965  -0.14629754    5.6073399    35399.607 
 9360000   0.80211844  -0.10774138     5.599756    35399.607 
 9370000   0.80001918  -0.09033896    5.5878395    35399.607 
 9380000   0.80628345 -0.062322776    5.5824434    35399.607 
 9390000   0.80163001  -0.09833855    5.6020202    35399.607 
 9400000    0.7989918  -0.11430197    5.5777581    35399.607 
 9410000   0.80215821  -0.14838649    5.6118937    35399.607 
 9420000   0.79893161  -0.19100081    5.5922539    35399.607 
 9430000   0.80264194  -0.11159324    5.6010794    35399.607 
 9440000   0.79770614  -0.11145862     5.594635    35399.607 
 9450000   0.79444531  -0.12905083    5.5932814    35399.607 
 9460000   0.79877392  -0.13686329    5.5963799    35399.607 
 9470000   0.80199803  -0.12987259    5.6115171    35399.607 
 9480000    0.8016815     -0.10752    5.5870694    35399.607 
 9490000   0.79163437  -0.17312502    5.5564509    35399.607 
 9500000   0.80601871 -0.071647576    5.6097551    35399.607 
 9510000   0.79653459 -0.076153943    5.5826259    35399.607 
 9520000   0.80261322 -0.058574067     5.600742    35399.607 
 9530000   0.80558978  -0.14923933    5.5867009    35399.607 
 9540000   0.80698167 -0.065174206    5.5987843    35399.607 
 9550000   0.80249667    -0.161973    5.6090819    35399.607 
 9560000   0.80170903 -0.046004454    5.5906605    35399.607 
 9570000   0.80043044 -0.095602378    5.5832675    35399.607 
 9580000    0.8003993  -0.12409755    5.5882088    35399.607 
 9590000   0.79657736  -0.12193057    5.5937364    35399.607 
 9600000   0.79203485 -0.054585796    5.6014906    35399.607 
 9610000   0.79817558 -0.099716215    5.6034499    35399.607 
 9620000   0.80460966  -0.13340126    5.5863065    35399.607 
 9630000   0.79827143  -0.14589107    5.5909259    35399.607 
 9640000   0.80081517 -0.085137099     5.611632    35399.607 
 9650000    0.7973638  -0.15717478    5.5849055    35399.607 
 9660000    0.8009855  -0.14863041     5.602171    35399.607 
 9670000   0.79744323  -0.18596369    5.5910704    35399.607 
 9680000   0.79172156 -0.090670623    5.5756015    35399.607 
 9690000   0.80087136  -0.12307291    5.5801962    35399.607 
 9700000   0.79967525  -0.12433799    5.5992784    35399.607 
 9710000   0.80253636  -0.13744717    5.5920214    35399.607 
 9720000   0.79357959 -0.089021432    5.5735119    35399.607 
 9730000   0.79686044 -0.083076073    5.5807697    35399.607 
 9740000   0.80147668  -0.11341763    5.5974303    35399.607 
 9750000   0.80331295 -0.022007358    5.5868883    35399.607 
 9760000   0.79991553  -0.13741227    5.5958021    35399.607 
 9770000   0.79456121 -0.077250229    5.5849227    35399.607 
 9780000   0.80296736  -0.11828317    5.5989576    35399.607 
 9790000   0.79679604  -0.12198747    5.5920583    35399.607 
 9800000   0.79445938  -0.15975873    5.5732765    35399.607 
 9810000   0.79923902  -0.10097115    5.6023787    35399.607 
 9820000   0.80371899  -0.12766678    5.5989035    35399.607 
 9830000   0.80007844  -0.19412056    5.5892415    35399.607 
 9840000    0.8022663  -0.10283139    5.5985249    35399.607 
 9850000   0.79272689    -0.148474    5.5831918    35399.607 
 9860000   0.80532656  -0.21559113    5.6030208    35399.607 
 9870000   0.80325235  -0.10583823    5.6027273    35399.607 
 9880000   0.80046618  -0.17224558    5.5993514    35399.607 
 9890000    0.7982803  -0.15716065    5.5874535    35399.607 
 9900000    0.7967762  -0.16030813    5.5969844    35399.607 
 9910000   0.79333819 -0.080402052    5.5845963    35399.607 
 9920000   0.79842666 -0.041296908    5.5937603    35399.607 
 9930000   0.79813047  -0.10173744    5.5900553    35399.607 
 9940000   0.80052193 -0.060866139    5.5913496    35399.607 
 9950000    0.8027538  -0.14957673    5.6014263    35399.607 
 9960000   0.80311292  -0.16863748    5.6003292    35399.607 
 9970000   0.80112661  -0.15436132     5.598211    35399.607 
 9980000   0.80740857  -0.12084967    5.6122496    35399.607 
 9990000   0.80641819   -0.1694682    5.5935918    35399.607 
10000000   0.80052243  -0.12601019    5.6031635    35399.607 
10010000   0.79662614  -0.14792959    5.5924306    35399.607 
10020000   0.80325274  -0.15479707    5.5890726    35399.607 
10030000   0.80916468  -0.16056182     5.608734    35399.607 
10040000   0.79709867  -0.13897589    5.5879354    35399.607 
10050000   0.79990608 -0.084657343     5.603859    35399.607 
10060000   0.80605233 -0.053812008    5.5930668    35399.607 
10070000   0.80020781  -0.19397437    5.5798149    35399.607 
10080000   0.80248597 -0.093433228    5.6003872    35399.607 
10090000   0.79467801 -0.087628748    5.5796999    35399.607 
10100000   0.79892722  -0.11678602    5.5829885    35399.607 
10110000    0.8009353   -0.1194501    5.5943921    35399.607 
10120000   0.79577474  -0.13855938    5.5913166    35399.607 
10130000    0.8042253  -0.10269667    5.6055131    35399.607 
10140000   0.80503869  -0.15166398    5.6099611    35399.607 
10150000   0.80198775 -0.079942675    5.5919652    35399.607 
10160000   0.80319217  -0.13375039    5.5915534    35399.607 
10170000   0.80315538 -0.033805304    5.5931966    35399.607 
10180000   0.79717022  -0.13081344    5.5879134    35399.607 
10190000   0.80023383 -0.087532917    5.5980423    35399.607 
10200000    0.7982357 -0.072676414    5.5986366    35399.607 
10210000   0.80108189 -0.091124399    5.5902518    35399.607 
10220000   0.79789665  -0.10137834    5.5790244    35399.607 
10230000   0.79635075 -0.021358984    5.5777532    35399.607 
10240000   0.80343057    -0.129416    5.5930616    35399.607 
10250000   0.80271195 -0.085176301    5.6036634    35399.607 
10260000   0.79992705 -0.063293617    5.5807776    35399.607 
10270000   0.80230428  -0.10787068    5.5938527    35399.607 
10280000   0.79878125 -0.044056167    5.6017611    35399.607 
10290000   0.79485137  -0.15898447    5.5791902    35399.607 
10300000   0.79321355  -0.12593657    5.5804731    35399.607 
10310000   0.80014098 -0.098189625    5.5839195    35399.607 
10320000    0.7967359  -0.15559523    5.5890711    35399.607 
10330000   0.80128942 -0.088202815     5.590955    35399.607 
10340000   0.80333033 -0.088943322    5.6022661    35399.607 
10350000    0.7954962  -0.13962364      5.59111    35399.607 
10360000   0.80263985 -0.077161172    5.6013029    35399.607 
10370000   0.80711954  -0.11897389    5.5920633    35399.607 
10380000   0.79348684  -0.13896175    5.5711749    35399.607 
10390000   0.79755975  -0.14882361    5.5920365    35399.607 
10400000   0.79572331  -0.14355932     5.590963    35399.607 
10410000   0.79723849 -0.094559555    5.5844793    35399.607 
10420000   0.80301144  -0.15767896    5.5970878    35399.607 
10430000    0.8016587  -0.11277853    5.6068223    35399.607 
10440000   0.80060998 -0.041497484    5.5835048    35399.607 
10450000   0.80023463  -0.10096356    5.6010487    35399.607 
10460000    0.7983448 -0.080401195    5.6000055    35399.607 
10470000   0.79856202 -0.067470294    5.5859828    35399.607 
10480000   0.80082124  -0.10974322    5.5867545    35399.607 
10490000   0.80293612  -0.12989621    5.6063871    35399.607 
10500000   0.80141587  -0.11347096    5.5989928    35399.607 
10510000    0.7970993 -0.080756446     5.592335    35399.607 
10520000   0.80185204  -0.17435613    5.5886768    35399.607 
10530000   0.80214512   -0.1274226    5.6038732    35399.607 
10540000   0.80038808  -0.13906905    5.5923585    35399.607 
10550000   0.79596592   -0.1027775    5.5624102    35399.607 
10560000   0.80117763  -0.10459308    5.5871481    35399.607 
10570000   0.79734112 -0.092705346    5.6033436    35399.607 
10580000   0.80351331  -0.12205661    5.5895737    35399.607 
10590000   0.80489147  -0.12928941    5.5954746    35399.607 
10600000   0.80280091  -0.15740246    5.6006931    35399.607 
10610000   0.79293639 -0.078049384    5.5762303    35399.607 
10620000   0.79942328  -0.13948481    5.6001705    35399.607 
10630000   0.80821383  -0.10655476    5.6055958    35399.607 
10640000   0.79398364  -0.13595267    5.5891781    35399.607 
10650000   0.79915312  -0.13660461    5.5934182    35399.607 
10660000   0.80351084  -0.14479249    5.6013847    35399.607 
10670000   0.80049634  -0.10612673     5.595287    35399.607 
10680000   0.80373491 -0.034564166    5.5866733    35399.607 
10690000   0.80243836 -0.071120595    5.5797039    35399.607 
10700000   0.79878909  -0.12852293    5.5953052    35399.607 
10710000   0.79021167  -0.10191542    5.5674609    35399.607 
10720000   0.79481321  -0.11065985    5.6032991    35399.607 
10730000   0.80547171  -0.11593722     5.600798    35399.607 
10740000   0.79885497  -0.14078747    5.6025869    35399.607 
10750000   0.79298851  -0.14023693    5.5820705    35399.607 
10760000   0.80273599 -0.057047068    5.5891928    35399.607 
10770000   0.79335114  -0.15040421    5.5748956    35399.607 
10780000    0.7980123 -0.075486118    5.5981467    35399.607 
10790000   0.80239418 -0.055592468    5.6023474    35399.607 
10800000   0.79864418  -0.13788219    5.5926099    35399.607 
10810000   0.79549341  -0.13491447    5.5942383    35399.607 
10820000   0.80117729  -0.16782136    5.5887412    35399.607 
10830000   0.79560513  -0.15169766     5.586706    35399.607 
10840000   0.80470393 -0.095605946    5.5857769    35399.607 
10850000   0.79939538 -0.069819638    5.6027736    35399.607 
10860000   0.80279287  -0.10820899    5.6034525    35399.607 
10870000   0.80183852 -0.089964102    5.5916743    35399.607 
10880000   0.80706309  -0.12435838    5.6086932    35399.607 
10890000   0.81256168 -0.033569651    5.5943275    35399.607 
10900000   0.80147327  -0.16781059    5.5994578    35399.607 
10910000   0.80311521 -0.062561039    5.5940041    35399.607 
10920000    0.7970397  -0.13077604    5.5854279    35399.607 
10930000   0.79683321   -0.1301196    5.5906217    35399.607 
10940000   0.79548479 -0.043854222     5.583853    35399.607 
10950000   0.80356666 -0.068572761    5.6068477    35399.607 
10960000   0.79560389 -0.064773672     5.579619    35399.607 
10970000   0.79982479  -0.14856992    5.6016125    35399.607 
10980000   0.80217307  -0.11604012    5.6010271    35399.607 
10990000   0.79768715 -0.099244133    5.5944836    35399.607 
11000000   0.80760895  -0.11150348    5.5849992    35399.607 
11010000    0.7975526 -0.079781928    5.5923815    35399.607 
11020000   0.79554843 -0.046722858    5.5992115    35399.607 
11030000   0.80132929  -0.18206906    5.5897603    35399.607 
11040000   0.79923819  -0.10747956    5.5925858    35399.607 
11050000   0.80164382 -0.085410875    5.5997914    35399.607 
11060000   0.80087634 -0.058946173     5.592091    35399.607 
11070000   0.80193821 -0.044935261    5.5855974    35399.607 
11080000   0.80185729  -0.15973333    5.6054831    35399.607 
11090000   0.79787649  -0.10057431    5.5835016    35399.607 
11100000   0.79991705  -0.12710104    5.5984259    35399.607 
11110000   0.80293172  -0.10171239    5.5904011    35399.607 
11120000   0.79771715 -0.069633578    5.5931728    35399.607 
11130000   0.79928806 -0.063430265    5.5867396    35399.607 
11140000    0.8024587  -0.18764964    5.6088963    35399.607 
11150000   0.80092964  -0.10208705    5.5964031    35399.607 
11160000   0.79891884  -0.13834374    5.5951745    35399.607 
11170000   0.79868895  -0.11230626    5.5963718    35399.607 
11180000   0.79965182  -0.10447157    5.6024792    35399.607 
11190000   0.79811674  -0.10779804    5.5988016    35399.607 
11200000   0.80516108   -0.1529023    5.5960512    35399.607 
11210000   0.79799002 -0.065524237    5.5859089    35399.607 
11220000   0.80433642 -0.083258096    5.5865839    35399.607 
11230000   0.79904409 -0.075893853     5.569439    35399.607 
11240000   0.80065233 -0.094426433     5.591869    35399.607 
11250000   0.80455033 -0.088210303    5.6208454    35399.607 
11260000   0.79933749  -0.11881771    5.5813362    35399.607 
11270000   0.79885891 -0.091514179     5.591558    35399.607 
11280000   0.79803469 -0.065565448    5.5949952    35399.607 
11290000   0.80193317 -0.068074353    5.5931194    35399.607 
11300000   0.79838133  -0.17101761    5.5902718    35399.607 
11310000   0.80647415 -0.013026114    5.6110929    35399.607 
11320000   0.80177591  -0.12352132    5.6052227    35399.607 
11330000   0.80381916   -0.1479187    5.6066415    35399.607 
11340000   0.79988693 -0.088484582    5.5886803    35399.607 
11350000   0.79345235    -0.135341    5.5775893    35399.607 
11360000   0.79942429  -0.12828494    5.5932453    35399.607 
11370000   0.79529677  -0.16623558    5.5703117    35399.607 
11380000   0.79561576 -0.098539836    5.6033012    35399.607 
11390000   0.79772087 -0.080959822    5.5915923    35399.607 
11400000   0.80326663  -0.10865337    5.6108297    35399.607 
11410000   0.79902956 -0.086778208    5.5885377    35399.607 
11420000   0.80188055  -0.14184774    5.6020793    35399.607 
11430000   0.80898005  -0.10410406    5.6081645    35399.607 
11440000   0.79885325 -0.048095507    5.5905562    35399.607 
11450000   0.79696617  -0.13081522    5.5848129    35399.607 
11460000   0.80024814   -0.1501673    5.5868606    35399.607 
11470000   0.80650122 -0.096227407    5.5896376    35399.607 
11480000    0.8015263 -0.078517379    5.5982454    35399.607 
11490000   0.79755398 -0.097396923    5.6003379    35399.607 
11500000   0.80533586  -0.16485865    5.6085192    35399.607 
11510000   0.79828924 -0.096021042    5.5969316    35399.607 
11520000   0.80289228 -0.055160471    5.5853149    35399.607 
11530000    0.7966955 -0.089848431    5.5854949    35399.607 
11540000   0.79743395  -0.10139986    5.5760186    35399.607 
11550000   0.80381083 -0.066185804    5.5864211    35399.607 
11560000    0.8006773   -0.0669979    5.5816785    35399.607 
11570000   0.79600024  -0.15888551    5.5845437    35399.607 
11580000   0.80599148  -0.10250191    5.5984918    35399.607 
11590000   0.79897784  -0.14690476    5.5888115    35399.607 
11600000   0.79622321 -0.072443499    5.5738667    35399.607 
11610000   0.79855691 -0.00036157752    5.5927449    35399.607 
11620000   0.79530109  -0.10036898    5.5982694    35399.607 
11630000   0.79819382 -0.094106011    5.5709409    35399.607 
11640000   0.80000197  -0.13507558     5.590339    35399.607 
11650000   0.78957864  -0.18266002    5.5884734    35399.607 
11660000   0.80997227 -0.078310995    5.5925702    35399.607 
11670000   0.80029379  -0.10345233    5.5935568    35399.607 
11680000   0.79500531  -0.15600447    5.5826265    35399.607 
11690000   0.79870718  -0.10722677    5.5948861    35399.607 
11700000   0.80253448  -0.17050762    5.5875555    35399.607 
11710000   0.79884913  -0.10436391     5.579037    35399.607 
11720000   0.80309381  -0.16751237    5.5967673    35399.607 
11730000   0.79608091  -0.17490699    5.5761805    35399.607 
11740000   0.80514953  -0.14233759    5.6035139    35399.607 
11750000   0.80066508  -0.14639846     5.612414    35399.607 
11760000   0.79662365  -0.12229562    5.5879708    35399.607 
11770000   0.79285457 -0.045052094    5.5719028    35399.607 
11780000    0.7962189  -0.13966656    5.5889964    35399.607 
11790000   0.79814216  -0.09262447    5.6039314    35399.607 
11800000    0.7977218 -0.029307774    5.5958967    35399.607 
11810000   0.80075606  -0.21486754    5.5955478    35399.607 
11820000   0.80164475 -0.075281339    5.5966563    35399.607 
11830000   0.80176489  -0.15376881    5.5968085    35399.607 
11840000    0.8055189 -0.084158307    5.6046523    35399.607 
11850000   0.80247649  -0.13255341    5.6014709    35399.607 
11860000   0.79857365   -0.0994018    5.5747526    35399.607 
11870000   0.79725623  -0.13592787    5.5856282    35399.607 
11880000   0.80292689  -0.16142029    5.5828234    35399.607 
11890000   0.79660585 -0.062509477    5.5793976    35399.607 
11900000   0.80116251 -0.090939701    5.5863285    35399.607 
11910000   0.80407732  -0.13296422    5.5917137    35399.607 
11920000   0.79653429  -0.19540199    5.5817396    35399.607 
11930000   0.80063994  -0.13285037    5.5811056    35399.607 
11940000   0.80048439  -0.15148588    5.5931184    35399.607 
11950000   0.80133619  -0.13091624    5.5938271    35399.607 
11960000   0.79715075   -0.2303187    5.5821826    35399.607 
11970000    0.8000576  -0.11030947    5.5906154    35399.607 
11980000   0.80480843  0.018416529    5.5806685    35399.607 
11990000    0.8014692  -0.12457014    5.5935707    35399.607 
12000000   0.80327741 -0.088599889    5.6080555    35399.607 
Loop time of 106109 on 216 procs for 5000000 steps with 28900 atoms

Performance: 20356.494 tau/day, 47.122 timesteps/s
99.8% CPU use with 216 MPI tasks x 1 OpenMP threads

MPI task timing breakdown:
Section |  min time  |  avg time  |  max time  |%varavg| %total
---------------------------------------------------------------
Pair    | 955.88     | 1400.7     | 1762.1     | 410.7 |  1.32
Bond    | 7.2196     | 11.243     | 15.966     |  44.7 |  0.01
Kspace  | 97817      | 98871      | 99899      | 127.8 | 93.18
Neigh   | 795.28     | 824.73     | 852.14     |  37.5 |  0.78
Comm    | 1415.2     | 2075.8     | 3048.7     | 683.2 |  1.96
Output  | 3.3252     | 3.3286     | 3.3712     |   0.2 |  0.00
Modify  | 2048.1     | 2470       | 2818.6     | 372.6 |  2.33
Other   |            | 452.2      |            |       |  0.43

Nlocal:    133.796 ave 250 max 3 min
Histogram: 5 3 5 8 69 74 29 16 5 2
Nghost:    974.12 ave 1381 max 308 min
Histogram: 4 2 7 9 14 52 56 51 14 7
Neighs:    5352.2 ave 14637 max 17 min
Histogram: 9 11 67 60 29 16 17 4 1 2

Total # of neighbors = 1156076
Ave neighs/atom = 40.0026
Ave special neighs/atom = 0.602076
Neighbor list builds = 671187
Dangerous builds = 0
System init for write_restart ...
PPPM initialization ...
  using 12-bit tables for long-range coulomb (src/kspace.cpp:332)
  G vector (1/distance) = 1.26818
  grid = 135 135 135
  stencil order = 5
  estimated absolute RMS force accuracy = 0.00013496
  estimated relative force accuracy = 0.00013496
  using double precision FFTW3
  3d grid and FFT values/proc = 24389 12960
WARNING: Neighbor exclusions used with KSpace solver may give inconsistent Coulombic energies (src/neighbor.cpp:486)
Neighbor list info ...
  update every 1 steps, delay 0 steps, check yes
  max neighbors/atom: 2000, page size: 100000
  master list distance cutoff = 2.8
  ghost atom cutoff = 2.8
  binsize = 1.4, bins = 24 24 24
  2 neighbor lists, perpetual/occasional/extra = 2 0 0
  (1) pair lj/cut, perpetual
      attributes: half, newton on
      pair build: half/bin/newton
      stencil: half/bin/3d/newton
      bin: standard
  (2) pair coul/long, perpetual, skip from (1)
      attributes: half, newton on
      pair build: skip
      stencil: none
      bin: none
Total wall time: 31:10:29
