ITEM: TIMESTEP
0
ITEM: NUMBER OF ATOMS
1400
ITEM: BOX BOUNDS pp pp pp
0.0000000000000000e+00 3.5000000000000000e+01
0.0000000000000000e+00 3.5000000000000000e+01
0.0000000000000000e+00 3.5000000000000000e+01
ITEM: ATOMS id mol type x y z 
122 0 1 4.9 1.6 0.5 
963 0 1 2.7 2.7 1.5 
956 0 1 1.6 4.9 1.5 
2763 0 1 2.7 2.7 3.5 
2757 0 1 1.6 3.8 3.5 
3720 0 1 3.8 0.5 4.5 
4563 0 1 2.7 2.7 5.5 
5522 0 1 4.9 1.6 6.5 
7261 0 1 2.7 0.5 8.5 
7203 0 1 0.5 2.7 8.5 
8219 0 1 3.8 1.6 9.5 
9064 0 1 2.7 3.8 10.5 
9962 0 1 2.7 1.6 11.5 
10924 0 1 4.9 3.8 12.5 
11819 0 1 3.8 1.6 13.5 
11818 0 1 3.8 2.7 13.5 
12602 0 1 0.5 1.6 14.5 
12658 0 1 1.6 2.7 14.5 
14524 0 1 4.9 3.8 16.5 
14525 0 1 4.9 4.9 16.5 
15424 0 1 4.9 3.8 17.5 
15365 0 1 2.7 4.9 17.5 
15425 0 1 4.9 4.9 17.5 
16319 0 1 3.8 1.6 18.5 
16203 0 1 0.5 2.7 18.5 
16318 0 1 3.8 2.7 18.5 
16325 0 1 4.9 4.9 18.5 
17102 0 1 0.5 1.6 19.5 
17217 0 1 3.8 3.8 19.5 
18005 0 1 0.5 4.9 20.5 
19860 0 1 1.6 0.5 22.5 
19925 0 1 4.9 4.9 22.5 
20704 0 1 0.5 3.8 23.5 
22621 0 1 4.9 0.5 25.5 
23402 0 1 0.5 1.6 26.5 
24359 0 1 1.6 1.6 27.5 
24424 0 1 4.9 3.8 27.5 
24365 0 1 2.7 4.9 27.5 
1913 0 1 3.8 8.2 2.5 
1912 0 1 3.8 9.3 2.5 
2766 0 1 2.7 6 3.5 
2767 0 1 2.7 7.1 3.5 
5471 0 1 2.7 11.5 6.5 
6309 0 1 0.5 9.3 7.5 
7208 0 1 0.5 8.2 8.5 
7270 0 1 2.7 10.4 8.5 
8171 0 1 2.7 11.5 9.5 
9115 0 1 3.8 6 10.5 
9126 0 1 4.9 6 10.5 
9051 0 1 1.6 10.4 10.5 
9970 0 1 2.7 10.4 11.5 
10866 0 1 2.7 6 12.5 
10808 0 1 0.5 8.2 12.5 
10809 0 1 0.5 9.3 12.5 
11830 0 1 4.9 10.4 13.5 
12606 0 1 0.5 6 14.5 
12650 0 1 1.6 11.5 14.5 
13613 0 1 3.8 8.2 15.5 
13628 0 1 4.9 8.2 15.5 
14409 0 1 0.5 9.3 16.5 
15355 0 1 1.6 6 17.5 
16250 0 1 1.6 11.5 18.5 
17226 0 1 4.9 6 19.5 
17229 0 1 4.9 9.3 19.5 
19015 0 1 3.8 6 21.5 
19026 0 1 4.9 6 21.5 
19014 0 1 3.8 7.1 21.5 
18911 0 1 0.5 11.5 21.5 
19031 0 1 4.9 11.5 21.5 
19853 0 1 1.6 8.2 22.5 
19851 0 1 1.6 10.4 22.5 
20707 0 1 0.5 7.1 23.5 
20754 0 1 1.6 7.1 23.5 
20710 0 1 0.5 10.4 23.5 
22507 0 1 0.5 7.1 25.5 
23513 0 1 3.8 8.2 26.5 
23510 0 1 3.8 11.5 26.5 
24427 0 1 4.9 7.1 27.5 
24368 0 1 2.7 8.2 27.5 
24369 0 1 2.7 9.3 27.5 
24310 0 1 0.5 10.4 27.5 
26155 0 1 1.6 6 29.5 
26226 0 1 4.9 6 29.5 
26167 0 1 2.7 7.1 29.5 
26152 0 1 1.6 9.3 29.5 
26150 0 1 1.6 11.5 29.5 
109 0 1 3.8 12.6 0.5 
75 0 1 2.7 15.9 0.5 
106 0 1 3.8 15.9 0.5 
1933 0 1 4.9 13.7 2.5 
2832 0 1 4.9 12.6 3.5 
4548 0 1 1.6 13.7 5.5 
4546 0 1 1.6 15.9 5.5 
5533 0 1 4.9 13.7 6.5 
5535 0 1 4.9 15.9 6.5 
9049 0 1 1.6 12.6 10.5 
9132 0 1 4.9 12.6 10.5 
9073 0 1 2.7 13.7 10.5 
9047 0 1 1.6 14.8 10.5 
9016 0 1 0.5 17 10.5 
10009 0 1 3.8 12.6 11.5 
10934 0 1 4.9 14.8 12.5 
11748 0 1 1.6 13.7 13.5 
11745 0 1 1.6 17 13.5 
14414 0 1 0.5 14.8 16.5 
14534 0 1 4.9 14.8 16.5 
14445 0 1 1.6 17 16.5 
14536 0 1 4.9 17 16.5 
15349 0 1 1.6 12.6 17.5 
15432 0 1 4.9 12.6 17.5 
15313 0 1 0.5 13.7 17.5 
15348 0 1 1.6 13.7 17.5 
16335 0 1 4.9 15.9 18.5 
17146 0 1 1.6 15.9 19.5 
17205 0 1 3.8 17 19.5 
19873 0 1 2.7 13.7 22.5 
19935 0 1 4.9 15.9 22.5 
20773 0 1 2.7 13.7 23.5 
20808 0 1 3.8 13.7 23.5 
21707 0 1 3.8 14.8 24.5 
22546 0 1 1.6 15.9 25.5 
24372 0 1 2.7 12.6 27.5 
24433 0 1 4.9 13.7 27.5 
24436 0 1 4.9 17 27.5 
26173 0 1 2.7 13.7 29.5 
26207 0 1 3.8 14.8 29.5 
26145 0 1 1.6 17 29.5 
100 0 1 3.8 22.5 0.5 
1841 0 1 1.6 21.4 2.5 
2721 0 1 0.5 22.5 3.5 
4639 0 1 4.9 20.3 5.5 
5419 0 1 0.5 20.3 6.5 
6404 0 1 3.8 18.1 7.5 
6437 0 1 4.9 18.1 7.5 
7218 0 1 0.5 19.2 8.5 
7219 0 1 0.5 20.3 8.5 
7281 0 1 2.7 22.5 8.5 
8180 0 1 2.7 21.4 9.5 
9103 0 1 3.8 19.2 10.5 
9019 0 1 0.5 20.3 10.5 
9080 0 1 2.7 21.4 10.5 
9040 0 1 1.6 22.5 10.5 
9918 0 1 0.5 19.2 11.5 
10001 0 1 3.8 21.4 11.5 
10817 0 1 0.5 18.1 12.5 
10821 0 1 0.5 22.5 12.5 
12641 0 1 1.6 21.4 14.5 
13637 0 1 4.9 18.1 15.5 
13640 0 1 4.9 21.4 15.5 
14539 0 1 4.9 20.3 16.5 
15377 0 1 2.7 18.1 17.5 
15320 0 1 0.5 21.4 17.5 
16217 0 1 0.5 18.1 18.5 
16243 0 1 1.6 19.2 18.5 
16341 0 1 4.9 22.5 18.5 
17203 0 1 3.8 19.2 19.5 
18043 0 1 1.6 19.2 20.5 
19817 0 1 0.5 18.1 22.5 
19877 0 1 2.7 18.1 22.5 
19818 0 1 0.5 19.2 22.5 
19879 0 1 2.7 20.3 22.5 
19940 0 1 4.9 21.4 22.5 
20717 0 1 0.5 18.1 23.5 
22604 0 1 3.8 18.1 25.5 
22580 0 1 2.7 21.4 25.5 
22540 0 1 1.6 22.5 25.5 
26144 0 1 1.6 18.1 29.5 
23 0 1 0.5 24.7 0.5 
96 0 1 3.8 26.9 0.5 
95 0 1 3.8 28 0.5 
939 0 1 1.6 23.6 1.5 
1895 0 1 3.8 28 2.5 
2784 0 1 2.7 25.8 3.5 
3742 0 1 4.9 23.6 4.5 
3638 0 1 1.6 24.7 4.5 
3636 0 1 1.6 26.9 4.5 
3745 0 1 4.9 26.9 4.5 
3626 0 1 0.5 28 4.5 
3746 0 1 4.9 28 4.5 
3634 0 1 1.6 29.1 4.5 
3747 0 1 4.9 29.1 4.5 
4644 0 1 4.9 25.8 5.5 
4646 0 1 4.9 28 5.5 
6443 0 1 4.9 24.7 7.5 
9144 0 1 4.9 25.8 10.5 
10042 0 1 4.9 23.6 11.5 
10044 0 1 4.9 25.8 11.5 
9926 0 1 0.5 28 11.5 
9986 0 1 2.7 28 11.5 
10047 0 1 4.9 29.1 11.5 
10882 0 1 2.7 23.6 12.5 
10943 0 1 4.9 24.7 12.5 
10824 0 1 0.5 25.8 12.5 
11799 0 1 3.8 23.6 13.5 
11785 0 1 2.7 26.9 13.5 
11787 0 1 2.7 29.1 13.5 
12639 0 1 1.6 23.6 14.5 
12623 0 1 0.5 24.7 14.5 
12634 0 1 1.6 29.1 14.5 
14438 0 1 1.6 24.7 16.5 
15443 0 1 4.9 24.7 17.5 
16237 0 1 1.6 25.8 18.5 
17184 0 1 2.7 25.8 19.5 
18999 0 1 3.8 23.6 21.5 
18995 0 1 3.8 28 21.5 
19824 0 1 0.5 25.8 22.5 
20842 0 1 4.9 23.6 23.5 
21697 0 1 3.8 25.8 24.5 
21687 0 1 2.7 29.1 24.5 
23422 0 1 0.5 23.6 26.5 
23485 0 1 2.7 26.9 26.5 
23495 0 1 3.8 28 26.5 
24394 0 1 3.8 29.1 27.5 
24447 0 1 4.9 29.1 27.5 
25345 0 1 4.9 26.9 28.5 
1888 0 1 2.7 30.2 2.5 
8131 0 1 1.6 32.4 9.5 
10892 0 1 3.8 31.3 12.5 
11790 0 1 2.7 32.4 13.5 
12632 0 1 1.6 31.3 14.5 
13648 0 1 4.9 30.2 15.5 
17192 0 1 3.8 31.3 19.5 
18988 0 1 2.7 30.2 21.5 
18992 0 1 3.8 31.3 21.5 
19833 0 1 1.6 30.2 22.5 
21689 0 1 2.7 31.3 24.5 
22588 0 1 2.7 30.2 25.5 
22529 0 1 0.5 31.3 25.5 
23493 0 1 3.8 30.2 26.5 
302 0 1 11.5 1.6 0.5 
236 0 1 8.2 4.9 0.5 
1200 0 1 10.4 0.5 1.5 
1084 0 1 7.1 3.8 1.5 
1136 0 1 8.2 4.9 1.5 
3903 0 1 11.5 2.7 4.5 
3905 0 1 11.5 4.9 4.5 
4741 0 1 9.3 0.5 5.5 
4803 0 1 11.5 2.7 5.5 
4737 0 1 8.2 3.8 5.5 
6603 0 1 11.5 2.7 7.5 
7380 0 1 6 0.5 8.5 
7382 0 1 7.1 1.6 8.5 
7378 0 1 6 2.7 8.5 
8403 0 1 11.5 2.7 9.5 
8396 0 1 10.4 4.9 9.5 
9243 0 1 9.3 2.7 10.5 
9303 0 1 11.5 2.7 10.5 
9244 0 1 9.3 3.8 10.5 
12004 0 1 11.5 3.8 13.5 
12845 0 1 9.3 4.9 14.5 
13678 0 1 6 2.7 15.5 
13803 0 1 11.5 2.7 15.5 
14703 0 1 11.5 2.7 16.5 
14696 0 1 10.4 4.9 16.5 
15484 0 1 7.1 3.8 17.5 
16436 0 1 8.2 4.9 18.5 
17403 0 1 11.5 2.7 19.5 
18299 0 1 10.4 1.6 20.5 
19136 0 1 8.2 4.9 21.5 
20043 0 1 9.3 2.7 22.5 
20103 0 1 11.5 2.7 22.5 
20104 0 1 11.5 3.8 22.5 
22680 0 1 6 0.5 25.5 
22677 0 1 6 3.8 25.5 
24540 0 1 8.2 0.5 27.5 
25382 0 1 7.1 1.6 28.5 
25445 0 1 9.3 4.9 28.5 
26340 0 1 8.2 0.5 29.5 
26341 0 1 9.3 0.5 29.5 
26342 0 1 9.3 1.6 29.5 
26337 0 1 8.2 3.8 29.5 
26404 0 1 11.5 3.8 29.5 
188 0 1 7.1 8.2 0.5 
1194 0 1 10.4 7.1 1.5 
1091 0 1 7.1 11.5 1.5 
2107 0 1 11.5 7.1 2.5 
3908 0 1 11.5 8.2 4.5 
3911 0 1 11.5 11.5 4.5 
4734 0 1 8.2 7.1 5.5 
4732 0 1 8.2 9.3 5.5 
5573 0 1 6 8.2 6.5 
5589 0 1 7.1 9.3 6.5 
5631 0 1 8.2 10.4 6.5 
6606 0 1 11.5 6 7.5 
6590 0 1 10.4 11.5 7.5 
7495 0 1 10.4 6 8.5 
7506 0 1 11.5 6 8.5 
7431 0 1 8.2 10.4 8.5 
7370 0 1 6 11.5 8.5 
8395 0 1 10.4 6 9.5 
8288 0 1 7.1 8.2 9.5 
8271 0 1 6 10.4 9.5 
8290 0 1 7.1 10.4 9.5 
8351 0 1 9.3 11.5 9.5 
9247 0 1 9.3 7.1 10.5 
9307 0 1 11.5 7.1 10.5 
9250 0 1 9.3 10.4 10.5 
11049 0 1 9.3 9.3 12.5 
11948 0 1 9.3 8.2 13.5 
11890 0 1 7.1 10.4 13.5 
12911 0 1 11.5 11.5 14.5 
13673 0 1 6 8.2 15.5 
13791 0 1 10.4 10.4 15.5 
13790 0 1 10.4 11.5 15.5 
15487 0 1 7.1 7.1 17.5 
17287 0 1 7.1 7.1 19.5 
18173 0 1 6 8.2 20.5 
18248 0 1 9.3 8.2 20.5 
19133 0 1 8.2 8.2 21.5 
19131 0 1 8.2 10.4 21.5 
20109 0 1 11.5 9.3 22.5 
20050 0 1 9.3 10.4 22.5 
20110 0 1 11.5 10.4 22.5 
20111 0 1 11.5 11.5 22.5 
20931 0 1 8.2 10.4 23.5 
21910 0 1 11.5 10.4 24.5 
23634 0 1 8.2 7.1 26.5 
25375 0 1 6 6 28.5 
25433 0 1 8.2 8.2 28.5 
26408 0 1 11.5 8.2 29.5 
26271 0 1 6 10.4 29.5 
26350 0 1 9.3 10.4 29.5 
1213 0 1 11.5 13.7 1.5 
2112 0 1 11.5 12.6 2.5 
2028 0 1 8.2 13.7 2.5 
2025 0 1 8.2 17 2.5 
2989 0 1 10.4 12.6 3.5 
2896 0 1 7.1 17 3.5 
3794 0 1 7.1 14.8 4.5 
3887 0 1 10.4 14.8 4.5 
3796 0 1 7.1 17 4.5 
4666 0 1 6 15.9 5.5 
5655 0 1 9.3 15.9 6.5 
5625 0 1 8.2 17 6.5 
6553 0 1 9.3 13.7 7.5 
6585 0 1 10.4 17 7.5 
7488 0 1 10.4 13.7 8.5 
7513 0 1 11.5 13.7 8.5 
8354 0 1 9.3 14.8 9.5 
9314 0 1 11.5 14.8 10.5 
10066 0 1 6 15.9 11.5 
10095 0 1 7.1 15.9 11.5 
11052 0 1 9.3 12.6 12.5 
11953 0 1 9.3 13.7 13.5 
12768 0 1 6 13.7 14.5 
12767 0 1 6 14.8 14.5 
13756 0 1 9.3 17 15.5 
14592 0 1 7.1 12.6 16.5 
14595 0 1 7.1 15.9 16.5 
15493 0 1 7.1 13.7 17.5 
16429 0 1 8.2 12.6 18.5 
16516 0 1 11.5 17 18.5 
18287 0 1 10.4 14.8 20.5 
18256 0 1 9.3 17 20.5 
19125 0 1 8.2 17 21.5 
20052 0 1 9.3 12.6 22.5 
20112 0 1 11.5 12.6 22.5 
25395 0 1 7.1 15.9 28.5 
26354 0 1 9.3 14.8 29.5 
26387 0 1 10.4 14.8 29.5 
26326 0 1 8.2 15.9 29.5 
318 0 1 11.5 19.2 0.5 
200 0 1 7.1 21.4 0.5 
1100 0 1 7.1 21.4 1.5 
1180 0 1 10.4 22.5 1.5 
1998 0 1 7.1 19.2 2.5 
2021 0 1 8.2 21.4 2.5 
3797 0 1 7.1 18.1 4.5 
3798 0 1 7.1 19.2 4.5 
3821 0 1 8.2 21.4 4.5 
6460 0 1 6 22.5 7.5 
6501 0 1 7.1 22.5 7.5 
7363 0 1 6 19.2 8.5 
8298 0 1 7.1 19.2 9.5 
8300 0 1 7.1 21.4 9.5 
8421 0 1 11.5 22.5 9.5 
9161 0 1 6 21.4 10.5 
10101 0 1 7.1 22.5 11.5 
10180 0 1 10.4 22.5 11.5 
11119 0 1 11.5 20.3 12.5 
11000 0 1 7.1 21.4 12.5 
11897 0 1 7.1 18.1 13.5 
12018 0 1 11.5 19.2 13.5 
11920 0 1 8.2 22.5 13.5 
12857 0 1 9.3 18.1 14.5 
13697 0 1 7.1 18.1 15.5 
13663 0 1 6 19.2 15.5 
13818 0 1 11.5 19.2 15.5 
13819 0 1 11.5 20.3 15.5 
14657 0 1 9.3 18.1 16.5 
15557 0 1 9.3 18.1 17.5 
15620 0 1 11.5 21.4 17.5 
15501 0 1 7.1 22.5 17.5 
16457 0 1 9.3 18.1 18.5 
16458 0 1 9.3 19.2 18.5 
16420 0 1 8.2 22.5 18.5 
17383 0 1 10.4 19.2 19.5 
17261 0 1 6 21.4 19.5 
18281 0 1 10.4 21.4 20.5 
19157 0 1 9.3 18.1 21.5 
19963 0 1 6 19.2 22.5 
19962 0 1 6 20.3 22.5 
21018 0 1 11.5 19.2 23.5 
21763 0 1 6 19.2 24.5 
22700 0 1 7.1 21.4 25.5 
23720 0 1 11.5 21.4 26.5 
24559 0 1 9.3 20.3 27.5 
25517 0 1 11.5 18.1 28.5 
26301 0 1 7.1 22.5 29.5 
264 0 1 9.3 25.8 0.5 
2122 0 1 11.5 23.6 2.5 
2124 0 1 11.5 25.8 2.5 
2005 0 1 7.1 26.9 2.5 
2067 0 1 9.3 29.1 2.5 
2914 0 1 8.2 29.1 3.5 
3863 0 1 9.3 24.7 4.5 
4659 0 1 6 23.6 5.5 
5726 0 1 11.5 28 6.5 
6503 0 1 7.1 24.7 7.5 
6505 0 1 7.1 26.9 7.5 
8377 0 1 10.4 25.8 9.5 
9155 0 1 6 28 10.5 
10224 0 1 11.5 25.8 11.5 
11005 0 1 7.1 26.9 12.5 
11903 0 1 7.1 24.7 13.5 
11963 0 1 9.3 24.7 13.5 
11917 0 1 8.2 25.8 13.5 
13659 0 1 6 23.6 15.5 
13718 0 1 8.2 24.7 15.5 
13765 0 1 9.3 26.9 15.5 
14723 0 1 11.5 24.7 16.5 
14556 0 1 6 26.9 16.5 
14554 0 1 6 29.1 16.5 
16404 0 1 7.1 25.8 18.5 
16417 0 1 8.2 25.8 18.5 
16405 0 1 7.1 26.9 18.5 
16476 0 1 10.4 26.9 18.5 
16466 0 1 9.3 28 18.5 
18262 0 1 9.3 23.6 20.5 
18265 0 1 9.3 26.9 20.5 
19163 0 1 9.3 24.7 21.5 
20017 0 1 8.2 25.8 22.5 
20016 0 1 8.2 26.9 22.5 
20007 0 1 7.1 29.1 22.5 
20067 0 1 9.3 29.1 22.5 
20975 0 1 10.4 28 23.5 
21803 0 1 7.1 24.7 24.5 
23726 0 1 11.5 28 26.5 
24578 0 1 10.4 24.7 27.5 
24457 0 1 6 25.8 27.5 
24564 0 1 9.3 25.8 27.5 
24456 0 1 6 26.9 27.5 
26302 0 1 7.1 23.6 29.5 
26363 0 1 9.3 24.7 29.5 
26316 0 1 8.2 26.9 29.5 
26365 0 1 9.3 26.9 29.5 
26306 0 1 7.1 28 29.5 
26426 0 1 11.5 28 29.5 
330 0 1 11.5 32.4 0.5 
1230 0 1 11.5 32.4 1.5 
2073 0 1 10.4 30.2 2.5 
2913 0 1 8.2 30.2 3.5 
2968 0 1 9.3 30.2 3.5 
2973 0 1 10.4 30.2 3.5 
3752 0 1 6 31.3 4.5 
4653 0 1 6 30.2 5.5 
4711 0 1 8.2 32.4 5.5 
6453 0 1 6 30.2 7.5 
6569 0 1 9.3 31.3 7.5 
7530 0 1 11.5 32.4 8.5 
8368 0 1 9.3 30.2 9.5 
11913 0 1 8.2 30.2 13.5 
12928 0 1 11.5 30.2 14.5 
14608 0 1 7.1 30.2 16.5 
14672 0 1 10.4 31.3 16.5 
14671 0 1 10.4 32.4 16.5 
16471 0 1 10.4 32.4 18.5 
17251 0 1 6 32.4 19.5 
18272 0 1 10.4 31.3 20.5 
20068 0 1 9.3 30.2 22.5 
21809 0 1 7.1 31.3 24.5 
22772 0 1 10.4 31.3 25.5 
22829 0 1 11.5 31.3 25.5 
26309 0 1 7.1 31.3 29.5 
26429 0 1 11.5 31.3 29.5 
361 0 1 13.7 0.5 0.5 
363 0 1 13.7 2.7 0.5 
2223 0 1 15.9 2.7 2.5 
2225 0 1 15.9 4.9 2.5 
2276 0 1 17 4.9 2.5 
4019 0 1 14.8 1.6 4.5 
4018 0 1 14.8 2.7 4.5 
4024 0 1 15.9 3.8 4.5 
4920 0 1 14.8 0.5 5.5 
4921 0 1 15.9 0.5 5.5 
5764 0 1 13.7 3.8 6.5 
7625 0 1 15.9 4.9 8.5 
8525 0 1 15.9 4.9 9.5 
10319 0 1 14.8 1.6 11.5 
10263 0 1 13.7 2.7 11.5 
10325 0 1 15.9 4.9 11.5 
11280 0 1 17 0.5 12.5 
11217 0 1 14.8 3.8 12.5 
12123 0 1 15.9 2.7 13.5 
12124 0 1 15.9 3.8 13.5 
13921 0 1 15.9 0.5 15.5 
13919 0 1 14.8 1.6 15.5 
14759 0 1 12.6 1.6 16.5 
14763 0 1 13.7 2.7 16.5 
15659 0 1 12.6 1.6 17.5 
15719 0 1 14.8 1.6 17.5 
15779 0 1 17 1.6 17.5 
15777 0 1 17 3.8 17.5 
15716 0 1 14.8 4.9 17.5 
17520 0 1 14.8 0.5 19.5 
17578 0 1 17 2.7 19.5 
17524 0 1 15.9 3.8 19.5 
17576 0 1 17 4.9 19.5 
18421 0 1 15.9 0.5 20.5 
18359 0 1 12.6 1.6 20.5 
18357 0 1 12.6 3.8 20.5 
18356 0 1 12.6 4.9 20.5 
19380 0 1 17 0.5 21.5 
20221 0 1 15.9 0.5 22.5 
20162 0 1 13.7 1.6 22.5 
21121 0 1 15.9 0.5 23.5 
21119 0 1 14.8 1.6 23.5 
21122 0 1 15.9 1.6 23.5 
21124 0 1 15.9 3.8 23.5 
21125 0 1 15.9 4.9 23.5 
21956 0 1 12.6 4.9 24.5 
22858 0 1 12.6 2.7 25.5 
22863 0 1 13.7 2.7 25.5 
25618 0 1 14.8 2.7 28.5 
25617 0 1 14.8 3.8 28.5 
371 0 1 13.7 11.5 0.5 
1331 0 1 15.9 11.5 1.5 
2274 0 1 17 7.1 2.5 
3113 0 1 14.8 8.2 3.5 
4074 0 1 17 7.1 4.5 
4013 0 1 14.8 8.2 4.5 
5770 0 1 13.7 10.4 6.5 
5811 0 1 14.8 10.4 6.5 
5750 0 1 12.6 11.5 6.5 
6668 0 1 13.7 8.2 7.5 
7630 0 1 15.9 10.4 8.5 
8574 0 1 17 7.1 9.5 
8573 0 1 17 8.2 9.5 
10255 0 1 12.6 6 11.5 
12955 0 1 12.6 6 14.5 
13026 0 1 15.9 6 14.5 
13028 0 1 15.9 8.2 14.5 
15726 0 1 15.9 6 17.5 
15714 0 1 14.8 7.1 17.5 
16671 0 1 17 10.4 18.5 
17467 0 1 13.7 7.1 19.5 
17528 0 1 15.9 8.2 19.5 
17573 0 1 17 8.2 19.5 
17512 0 1 14.8 9.3 19.5 
18411 0 1 14.8 10.4 20.5 
18350 0 1 12.6 11.5 20.5 
20230 0 1 15.9 10.4 22.5 
20171 0 1 13.7 11.5 22.5 
21175 0 1 17 6 23.5 
21114 0 1 14.8 7.1 23.5 
21171 0 1 17 10.4 23.5 
21971 0 1 13.7 11.5 24.5 
22869 0 1 13.7 9.3 25.5 
23875 0 1 17 6 26.5 
24653 0 1 12.6 8.2 27.5 
24652 0 1 12.6 9.3 27.5 
24712 0 1 14.8 9.3 27.5 
24711 0 1 14.8 10.4 27.5 
25611 0 1 14.8 10.4 28.5 
25571 0 1 13.7 11.5 28.5 
26471 0 1 13.7 11.5 29.5 
346 0 1 12.6 15.9 0.5 
345 0 1 12.6 17 0.5 
1333 0 1 15.9 13.7 1.5 
1367 0 1 17 14.8 1.5 
2146 0 1 12.6 15.9 2.5 
2265 0 1 17 17 2.5 
4069 0 1 17 12.6 4.5 
4067 0 1 17 14.8 4.5 
4036 0 1 15.9 17 4.5 
4907 0 1 14.8 14.8 5.5 
9432 0 1 15.9 12.6 10.5 
9466 0 1 17 15.9 10.5 
10272 0 1 13.7 12.6 11.5 
10246 0 1 12.6 15.9 11.5 
12107 0 1 14.8 14.8 13.5 
12106 0 1 14.8 15.9 13.5 
13069 0 1 17 12.6 14.5 
13068 0 1 17 13.7 14.5 
16547 0 1 12.6 14.8 18.5 
16666 0 1 17 15.9 18.5 
17449 0 1 12.6 12.6 19.5 
18432 0 1 15.9 12.6 20.5 
20149 0 1 12.6 12.6 22.5 
20172 0 1 13.7 12.6 22.5 
20232 0 1 15.9 12.6 22.5 
20269 0 1 17 12.6 22.5 
20268 0 1 17 13.7 22.5 
20174 0 1 13.7 14.8 22.5 
20266 0 1 17 15.9 22.5 
20145 0 1 12.6 17 22.5 
21048 0 1 12.6 13.7 23.5 
21107 0 1 14.8 14.8 23.5 
24648 0 1 12.6 13.7 27.5 
25572 0 1 13.7 12.6 28.5 
25609 0 1 14.8 12.6 28.5 
26475 0 1 13.7 15.9 29.5 
26536 0 1 15.9 17 29.5 
403 0 1 14.8 19.2 0.5 
381 0 1 13.7 22.5 0.5 
1361 0 1 17 21.4 1.5 
2264 0 1 17 18.1 2.5 
2260 0 1 17 22.5 2.5 
3164 0 1 17 18.1 3.5 
3161 0 1 17 21.4 3.5 
3040 0 1 12.6 22.5 3.5 
3977 0 1 13.7 18.1 4.5 
4037 0 1 15.9 18.1 4.5 
4063 0 1 17 19.2 4.5 
4901 0 1 14.8 21.4 5.5 
5743 0 1 12.6 19.2 6.5 
5779 0 1 13.7 20.3 6.5 
5740 0 1 12.6 22.5 6.5 
7579 0 1 13.7 20.3 8.5 
7580 0 1 13.7 21.4 8.5 
7640 0 1 15.9 21.4 8.5 
8561 0 1 17 21.4 9.5 
9342 0 1 12.6 20.3 10.5 
10361 0 1 17 21.4 11.5 
11264 0 1 17 18.1 12.5 
11142 0 1 12.6 20.3 12.5 
12102 0 1 14.8 20.3 13.5 
13062 0 1 17 20.3 14.5 
13061 0 1 17 21.4 14.5 
13961 0 1 17 21.4 15.5 
16580 0 1 13.7 21.4 18.5 
17444 0 1 12.6 18.1 19.5 
18344 0 1 12.6 18.1 20.5 
18340 0 1 12.6 22.5 20.5 
19304 0 1 14.8 18.1 21.5 
21101 0 1 14.8 21.4 23.5 
22904 0 1 14.8 18.1 25.5 
22902 0 1 14.8 20.3 25.5 
22901 0 1 14.8 21.4 25.5 
23837 0 1 15.9 18.1 26.5 
23841 0 1 15.9 22.5 26.5 
23860 0 1 17 22.5 26.5 
24763 0 1 17 19.2 27.5 
24702 0 1 14.8 20.3 27.5 
25664 0 1 17 18.1 28.5 
26563 0 1 17 19.2 29.5 
397 0 1 14.8 25.8 0.5 
457 0 1 17 25.8 0.5 
456 0 1 17 26.9 0.5 
387 0 1 13.7 29.1 0.5 
1343 0 1 15.9 24.7 1.5 
1344 0 1 15.9 25.8 1.5 
2198 0 1 14.8 24.7 2.5 
2134 0 1 12.6 29.1 2.5 
3939 0 1 12.6 23.6 4.5 
4058 0 1 17 24.7 4.5 
3984 0 1 13.7 25.8 4.5 
4044 0 1 15.9 25.8 4.5 
4057 0 1 17 25.8 4.5 
4896 0 1 14.8 26.9 5.5 
5859 0 1 17 23.6 6.5 
5783 0 1 13.7 24.7 6.5 
5737 0 1 12.6 25.8 6.5 
5797 0 1 14.8 25.8 6.5 
5857 0 1 17 25.8 6.5 
6694 0 1 14.8 29.1 7.5 
7583 0 1 13.7 24.7 8.5 
8544 0 1 15.9 25.8 9.5 
8545 0 1 15.9 26.9 9.5 
8554 0 1 17 29.1 9.5 
9338 0 1 12.6 24.7 10.5 
9446 0 1 15.9 28 10.5 
10282 0 1 13.7 23.6 11.5 
10298 0 1 14.8 24.7 11.5 
12994 0 1 14.8 29.1 14.5 
13839 0 1 12.6 23.6 15.5 
14783 0 1 13.7 24.7 16.5 
15684 0 1 13.7 25.8 17.5 
15685 0 1 13.7 26.9 17.5 
16583 0 1 13.7 24.7 18.5 
17494 0 1 14.8 29.1 19.5 
18456 0 1 17 26.9 20.5 
20185 0 1 13.7 26.9 22.5 
20134 0 1 12.6 29.1 22.5 
21142 0 1 15.9 23.6 23.5 
21156 0 1 17 26.9 23.5 
21035 0 1 12.6 28 23.5 
21095 0 1 14.8 28 23.5 
21087 0 1 13.7 29.1 23.5 
21994 0 1 14.8 29.1 24.5 
22047 0 1 15.9 29.1 24.5 
22897 0 1 14.8 25.8 25.5 
22887 0 1 13.7 29.1 25.5 
23859 0 1 17 23.6 26.5 
23844 0 1 15.9 25.8 26.5 
23795 0 1 14.8 28 26.5 
23847 0 1 15.9 29.1 26.5 
24758 0 1 17 24.7 27.5 
25657 0 1 17 25.8 28.5 
25585 0 1 13.7 26.9 28.5 
25534 0 1 12.6 29.1 28.5 
26557 0 1 17 25.8 29.5 
449 0 1 15.9 31.3 0.5 
1352 0 1 17 31.3 1.5 
3148 0 1 15.9 30.2 3.5 
3149 0 1 15.9 31.3 3.5 
3933 0 1 12.6 30.2 4.5 
3993 0 1 14.8 30.2 4.5 
4049 0 1 15.9 31.3 4.5 
4889 0 1 13.7 31.3 5.5 
6692 0 1 14.8 31.3 7.5 
8493 0 1 14.8 30.2 9.5 
8553 0 1 17 30.2 9.5 
8492 0 1 14.8 31.3 9.5 
9332 0 1 12.6 31.3 10.5 
12931 0 1 12.6 32.4 14.5 
14853 0 1 17 30.2 16.5 
15689 0 1 13.7 31.3 17.5 
20248 0 1 15.9 30.2 22.5 
21090 0 1 13.7 32.4 23.5 
21990 0 1 13.7 32.4 24.5 
26488 0 1 13.7 30.2 29.5 
482 0 1 18.1 1.6 0.5 
538 0 1 19.2 2.7 0.5 
1500 0 1 21.4 0.5 1.5 
4081 0 1 18.1 0.5 4.5 
4136 0 1 19.2 4.9 4.5 
5098 0 1 21.4 2.7 5.5 
4984 0 1 18.1 3.8 5.5 
5940 0 1 19.2 0.5 6.5 
5941 0 1 20.3 0.5 6.5 
9599 0 1 21.4 1.6 10.5 
9602 0 1 22.5 1.6 10.5 
10385 0 1 18.1 4.9 11.5 
11403 0 1 22.5 2.7 12.5 
11345 0 1 20.3 4.9 12.5 
12305 0 1 22.5 4.9 13.5 
13082 0 1 18.1 1.6 14.5 
13199 0 1 21.4 1.6 14.5 
14940 0 1 19.2 0.5 16.5 
14882 0 1 18.1 1.6 16.5 
14943 0 1 20.3 2.7 16.5 
15845 0 1 20.3 4.9 17.5 
16684 0 1 18.1 3.8 18.5 
17581 0 1 18.1 0.5 19.5 
20340 0 1 19.2 0.5 22.5 
20399 0 1 21.4 1.6 22.5 
20345 0 1 20.3 4.9 22.5 
21240 0 1 19.2 0.5 23.5 
21182 0 1 18.1 1.6 23.5 
21238 0 1 19.2 2.7 23.5 
21237 0 1 19.2 3.8 23.5 
22136 0 1 19.2 4.9 24.5 
23098 0 1 21.4 2.7 25.5 
23999 0 1 21.4 1.6 26.5 
25740 0 1 19.2 0.5 28.5 
26641 0 1 20.3 0.5 29.5 
593 0 1 21.4 8.2 0.5 
4149 0 1 20.3 9.3 4.5 
4988 0 1 18.1 8.2 5.5 
5092 0 1 21.4 9.3 5.5 
5947 0 1 20.3 7.1 6.5 
5950 0 1 20.3 10.4 6.5 
7686 0 1 18.1 6 8.5 
7793 0 1 21.4 8.2 8.5 
7750 0 1 20.3 10.4 8.5 
7791 0 1 21.4 10.4 8.5 
8630 0 1 19.2 11.5 9.5 
10390 0 1 18.1 10.4 11.5 
11395 0 1 21.4 6 12.5 
11407 0 1 22.5 7.1 12.5 
11392 0 1 21.4 9.3 12.5 
12231 0 1 19.2 10.4 13.5 
13088 0 1 18.1 8.2 14.5 
13208 0 1 22.5 8.2 14.5 
14933 0 1 19.2 8.2 16.5 
15835 0 1 19.2 6 17.5 
15789 0 1 18.1 9.3 17.5 
15790 0 1 18.1 10.4 17.5 
16689 0 1 18.1 9.3 18.5 
17586 0 1 18.1 6 19.5 
17630 0 1 19.2 11.5 19.5 
18486 0 1 18.1 6 20.5 
18551 0 1 20.3 11.5 20.5 
18611 0 1 22.5 11.5 20.5 
19494 0 1 21.4 7.1 21.5 
20286 0 1 18.1 6 22.5 
20334 0 1 19.2 7.1 22.5 
20348 0 1 20.3 8.2 22.5 
20392 0 1 21.4 9.3 22.5 
22147 0 1 20.3 7.1 24.5 
23093 0 1 21.4 8.2 25.5 
23109 0 1 22.5 9.3 25.5 
23111 0 1 22.5 11.5 25.5 
24009 0 1 22.5 9.3 26.5 
23990 0 1 21.4 11.5 26.5 
25746 0 1 20.3 6 28.5 
25806 0 1 22.5 6 28.5 
25750 0 1 20.3 10.4 28.5 
25810 0 1 22.5 10.4 28.5 
26647 0 1 20.3 7.1 29.5 
26588 0 1 18.1 8.2 29.5 
26708 0 1 22.5 8.2 29.5 
589 0 1 21.4 12.6 0.5 
614 0 1 22.5 14.8 0.5 
526 0 1 19.2 15.9 0.5 
1427 0 1 19.2 14.8 1.5 
1516 0 1 22.5 17 1.5 
4125 0 1 19.2 17 4.5 
4993 0 1 18.1 13.7 5.5 
5056 0 1 20.3 17 5.5 
6014 0 1 22.5 14.8 6.5 
6792 0 1 18.1 12.6 7.5 
6828 0 1 19.2 13.7 7.5 
7727 0 1 19.2 14.8 8.5 
7755 0 1 20.3 15.9 8.5 
7756 0 1 20.3 17 8.5 
8626 0 1 19.2 15.9 9.5 
8686 0 1 21.4 15.9 9.5 
10392 0 1 18.1 12.6 11.5 
10516 0 1 22.5 17 11.5 
11292 0 1 18.1 12.6 12.5 
11416 0 1 22.5 17 12.5 
12288 0 1 21.4 13.7 13.5 
12287 0 1 21.4 14.8 13.5 
12195 0 1 18.1 15.9 13.5 
12226 0 1 19.2 15.9 13.5 
13092 0 1 18.1 12.6 14.5 
13187 0 1 21.4 14.8 14.5 
14112 0 1 22.5 12.6 15.5 
14113 0 1 22.5 13.7 15.5 
14056 0 1 20.3 17 15.5 
14895 0 1 18.1 15.9 16.5 
15828 0 1 19.2 13.7 17.5 
15826 0 1 19.2 15.9 17.5 
15856 0 1 20.3 17 17.5 
15885 0 1 21.4 17 17.5 
16789 0 1 21.4 12.6 18.5 
16785 0 1 21.4 17 18.5 
17593 0 1 18.1 13.7 19.5 
17714 0 1 22.5 14.8 19.5 
18554 0 1 20.3 14.8 20.5 
19452 0 1 20.3 12.6 21.5 
20292 0 1 18.1 12.6 22.5 
21193 0 1 18.1 13.7 23.5 
22216 0 1 22.5 17 24.5 
23089 0 1 21.4 12.6 25.5 
24828 0 1 19.2 13.7 27.5 
25728 0 1 19.2 13.7 28.5 
26713 0 1 22.5 13.7 29.5 
26687 0 1 21.4 14.8 29.5 
2384 0 1 21.4 18.1 2.5 
4157 0 1 20.3 18.1 4.5 
4123 0 1 19.2 19.2 4.5 
5960 0 1 20.3 21.4 6.5 
5920 0 1 19.2 22.5 6.5 
6822 0 1 19.2 20.3 7.5 
7700 0 1 18.1 21.4 8.5 
8623 0 1 19.2 19.2 9.5 
8622 0 1 19.2 20.3 9.5 
9524 0 1 19.2 18.1 10.5 
9521 0 1 19.2 21.4 10.5 
11360 0 1 20.3 21.4 12.5 
13218 0 1 22.5 19.2 14.5 
13120 0 1 19.2 22.5 14.5 
15020 0 1 22.5 21.4 16.5 
16699 0 1 18.1 20.3 18.5 
17719 0 1 22.5 20.3 19.5 
18558 0 1 20.3 19.2 20.5 
18522 0 1 19.2 20.3 20.5 
20384 0 1 21.4 18.1 22.5 
20358 0 1 20.3 19.2 22.5 
22220 0 1 22.5 21.4 24.5 
23898 0 1 18.1 19.2 26.5 
23901 0 1 18.1 22.5 26.5 
23980 0 1 21.4 22.5 26.5 
24823 0 1 19.2 19.2 27.5 
24883 0 1 21.4 19.2 27.5 
25697 0 1 18.1 18.1 28.5 
25757 0 1 20.3 18.1 28.5 
25723 0 1 19.2 19.2 28.5 
26597 0 1 18.1 18.1 29.5 
26683 0 1 21.4 19.2 29.5 
26661 0 1 20.3 22.5 29.5 
515 0 1 19.2 28 0.5 
574 0 1 21.4 29.1 0.5 
1522 0 1 22.5 23.6 1.5 
1415 0 1 19.2 28 1.5 
2364 0 1 20.3 25.8 2.5 
2366 0 1 20.3 28 2.5 
3264 0 1 20.3 25.8 3.5 
4176 0 1 21.4 26.9 4.5 
5004 0 1 18.1 25.8 5.5 
5127 0 1 22.5 29.1 5.5 
5964 0 1 20.3 25.8 6.5 
7762 0 1 20.3 23.6 8.5 
7717 0 1 19.2 25.8 8.5 
7824 0 1 22.5 25.8 8.5 
7767 0 1 20.3 29.1 8.5 
7774 0 1 21.4 29.1 8.5 
8678 0 1 21.4 24.7 9.5 
9504 0 1 18.1 25.8 10.5 
10476 0 1 21.4 26.9 11.5 
11366 0 1 20.3 28 12.5 
11367 0 1 20.3 29.1 12.5 
11374 0 1 21.4 29.1 12.5 
12206 0 1 18.1 28 13.5 
13118 0 1 19.2 24.7 14.5 
13226 0 1 22.5 28 14.5 
14123 0 1 22.5 24.7 15.5 
14007 0 1 18.1 29.1 15.5 
14914 0 1 19.2 29.1 16.5 
14967 0 1 20.3 29.1 16.5 
15818 0 1 19.2 24.7 17.5 
15927 0 1 22.5 29.1 17.5 
16822 0 1 22.5 23.6 18.5 
17605 0 1 18.1 26.9 19.5 
17615 0 1 19.2 28 19.5 
18623 0 1 22.5 24.7 20.5 
20378 0 1 21.4 24.7 22.5 
20364 0 1 20.3 25.8 22.5 
21205 0 1 18.1 26.9 23.5 
22222 0 1 22.5 23.6 24.5 
22174 0 1 21.4 29.1 24.5 
23078 0 1 21.4 24.7 25.5 
23917 0 1 19.2 25.8 26.5 
24879 0 1 21.4 23.6 27.5 
24817 0 1 19.2 25.8 27.5 
24816 0 1 19.2 26.9 27.5 
568 0 1 20.3 30.2 0.5 
573 0 1 21.4 30.2 0.5 
1410 0 1 18.1 32.4 1.5 
3270 0 1 20.3 32.4 3.5 
5968 0 1 20.3 30.2 6.5 
5971 0 1 21.4 32.4 6.5 
6809 0 1 18.1 31.3 7.5 
7769 0 1 20.3 31.3 8.5 
7770 0 1 20.3 32.4 8.5 
8668 0 1 20.3 30.2 9.5 
8670 0 1 20.3 32.4 9.5 
10470 0 1 20.3 32.4 11.5 
11428 0 1 22.5 30.2 12.5 
11370 0 1 20.3 32.4 12.5 
13110 0 1 18.1 32.4 14.5 
14913 0 1 19.2 30.2 16.5 
18510 0 1 18.1 32.4 20.5 
22168 0 1 20.3 30.2 24.5 
23068 0 1 20.3 30.2 25.5 
23913 0 1 19.2 30.2 26.5 
23909 0 1 18.1 31.3 26.5 
24029 0 1 22.5 31.3 26.5 
26668 0 1 20.3 30.2 29.5 
26672 0 1 21.4 31.3 29.5 
662 0 1 24.7 1.6 0.5 
664 0 1 24.7 3.8 0.5 
716 0 1 25.8 4.9 0.5 
1679 0 1 28 1.6 1.5 
1617 0 1 25.8 3.8 1.5 
1556 0 1 23.6 4.9 1.5 
2461 0 1 24.7 0.5 2.5 
5279 0 1 28 1.6 5.5 
5278 0 1 28 2.7 5.5 
6124 0 1 26.9 3.8 6.5 
6177 0 1 28 3.8 6.5 
7981 0 1 29.1 0.5 8.5 
9784 0 1 29.1 3.8 10.5 
10679 0 1 28 1.6 11.5 
11460 0 1 23.6 0.5 12.5 
12364 0 1 24.7 3.8 13.5 
13265 0 1 24.7 4.9 14.5 
14220 0 1 25.8 0.5 15.5 
18778 0 1 28 2.7 20.5 
19621 0 1 26.9 0.5 21.5 
20520 0 1 25.8 0.5 22.5 
21363 0 1 24.7 2.7 23.5 
21418 0 1 25.8 2.7 23.5 
21476 0 1 28 4.9 23.5 
22321 0 1 26.9 0.5 24.5 
23284 0 1 29.1 3.8 25.5 
23165 0 1 24.7 4.9 25.5 
23216 0 1 25.8 4.9 25.5 
24121 0 1 26.9 0.5 26.5 
24062 0 1 24.7 1.6 26.5 
24118 0 1 25.8 2.7 26.5 
25024 0 1 26.9 3.8 27.5 
25077 0 1 28 3.8 27.5 
25085 0 1 29.1 4.9 27.5 
25918 0 1 25.8 2.7 28.5 
25925 0 1 26.9 4.9 28.5 
25976 0 1 28 4.9 28.5 
26880 0 1 28 0.5 29.5 
26824 0 1 26.9 3.8 29.5 
715 0 1 25.8 6 0.5 
653 0 1 23.6 8.2 0.5 
650 0 1 23.6 11.5 0.5 
1566 0 1 24.7 6 1.5 
1686 0 1 29.1 6 1.5 
1550 0 1 23.6 11.5 1.5 
2467 0 1 24.7 7.1 2.5 
2453 0 1 23.6 8.2 2.5 
2573 0 1 28 8.2 2.5 
2469 0 1 24.7 9.3 2.5 
3426 0 1 26.9 6 3.5 
3473 0 1 28 8.2 3.5 
3430 0 1 26.9 10.4 3.5 
3471 0 1 28 10.4 3.5 
4255 0 1 23.6 6 4.5 
4387 0 1 29.1 7.1 4.5 
4391 0 1 29.1 11.5 4.5 
5167 0 1 24.7 7.1 5.5 
5214 0 1 25.8 7.1 5.5 
5270 0 1 28 11.5 5.5 
5291 0 1 29.1 11.5 5.5 
6189 0 1 29.1 9.3 6.5 
7012 0 1 25.8 9.3 7.5 
7091 0 1 29.1 11.5 7.5 
7866 0 1 24.7 6 8.5 
7854 0 1 23.6 7.1 8.5 
7991 0 1 29.1 11.5 8.5 
8755 0 1 23.6 6 9.5 
8889 0 1 29.1 9.3 9.5 
9712 0 1 25.8 9.3 10.5 
9731 0 1 26.9 11.5 10.5 
11571 0 1 28 10.4 12.5 
12415 0 1 25.8 6 13.5 
12428 0 1 26.9 8.2 13.5 
12370 0 1 24.7 10.4 13.5 
12350 0 1 23.6 11.5 13.5 
13315 0 1 25.8 6 14.5 
13327 0 1 26.9 7.1 14.5 
13328 0 1 26.9 8.2 14.5 
13269 0 1 24.7 9.3 14.5 
15112 0 1 25.8 9.3 16.5 
15131 0 1 26.9 11.5 16.5 
16914 0 1 25.8 7.1 18.5 
16871 0 1 24.7 11.5 18.5 
17755 0 1 23.6 6 19.5 
17829 0 1 26.9 9.3 19.5 
17771 0 1 24.7 11.5 19.5 
18668 0 1 24.7 8.2 20.5 
18791 0 1 29.1 11.5 20.5 
19627 0 1 26.9 7.1 21.5 
20515 0 1 25.8 6 22.5 
20467 0 1 24.7 7.1 22.5 
20514 0 1 25.8 7.1 22.5 
21367 0 1 24.7 7.1 23.5 
22315 0 1 25.8 6 24.5 
22314 0 1 25.8 7.1 24.5 
22374 0 1 28 7.1 24.5 
22331 0 1 26.9 11.5 24.5 
23275 0 1 28 6 25.5 
23154 0 1 23.6 7.1 25.5 
23169 0 1 24.7 9.3 25.5 
23171 0 1 24.7 11.5 25.5 
23210 0 1 25.8 11.5 25.5 
24068 0 1 24.7 8.2 26.5 
25014 0 1 25.8 7.1 27.5 
25074 0 1 28 7.1 27.5 
25915 0 1 25.8 6 28.5 
26888 0 1 29.1 8.2 29.5 
26770 0 1 24.7 10.4 29.5 
709 0 1 25.8 12.6 0.5 
647 0 1 23.6 14.8 0.5 
1549 0 1 23.6 12.6 1.5 
2593 0 1 29.1 13.7 2.5 
4332 0 1 26.9 12.6 4.5 
5267 0 1 28 14.8 5.5 
6132 0 1 26.9 12.6 6.5 
6169 0 1 28 12.6 6.5 
7069 0 1 28 12.6 7.5 
7007 0 1 25.8 14.8 7.5 
7066 0 1 28 15.9 7.5 
7005 0 1 25.8 17 7.5 
7096 0 1 29.1 17 7.5 
7969 0 1 28 12.6 8.5 
7847 0 1 23.6 14.8 8.5 
7875 0 1 24.7 15.9 8.5 
8748 0 1 23.6 13.7 9.5 
8895 0 1 29.1 15.9 9.5 
8836 0 1 26.9 17 9.5 
11445 0 1 23.6 17 12.5 
12434 0 1 26.9 14.8 13.5 
12435 0 1 26.9 15.9 13.5 
13332 0 1 26.9 12.6 14.5 
13273 0 1 24.7 13.7 14.5 
13274 0 1 24.7 14.8 14.5 
13307 0 1 25.8 14.8 14.5 
13366 0 1 28 15.9 14.5 
14146 0 1 23.6 15.9 15.5 
15194 0 1 29.1 14.8 16.5 
16068 0 1 28 13.7 17.5 
15974 0 1 24.7 14.8 17.5 
16006 0 1 25.8 15.9 17.5 
16005 0 1 25.8 17 17.5 
16969 0 1 28 12.6 18.5 
16968 0 1 28 13.7 18.5 
16966 0 1 28 15.9 18.5 
18767 0 1 28 14.8 20.5 
19632 0 1 26.9 12.6 21.5 
19634 0 1 26.9 14.8 21.5 
20569 0 1 28 12.6 22.5 
20506 0 1 25.8 15.9 22.5 
21374 0 1 24.7 14.8 23.5 
21495 0 1 29.1 15.9 23.5 
22369 0 1 28 12.6 24.5 
22247 0 1 23.6 14.8 24.5 
23172 0 1 24.7 12.6 25.5 
23147 0 1 23.6 14.8 25.5 
23206 0 1 25.8 15.9 25.5 
24133 0 1 26.9 13.7 26.5 
24107 0 1 25.8 14.8 26.5 
25908 0 1 25.8 13.7 28.5 
25936 0 1 26.9 17 28.5 
25965 0 1 28 17 28.5 
26868 0 1 28 13.7 29.5 
762 0 1 28 20.3 0.5 
701 0 1 25.8 21.4 0.5 
640 0 1 23.6 22.5 0.5 
1661 0 1 28 21.4 1.5 
3438 0 1 26.9 19.2 3.5 
3342 0 1 23.6 20.3 3.5 
4363 0 1 28 19.2 4.5 
4341 0 1 26.9 22.5 4.5 
5204 0 1 25.8 18.1 5.5 
5263 0 1 28 19.2 5.5 
5141 0 1 23.6 21.4 5.5 
7002 0 1 25.8 20.3 7.5 
7062 0 1 28 20.3 7.5 
7842 0 1 23.6 20.3 8.5 
7999 0 1 29.1 20.3 8.5 
8899 0 1 29.1 20.3 9.5 
8900 0 1 29.1 21.4 9.5 
9797 0 1 29.1 18.1 10.5 
9679 0 1 24.7 20.3 10.5 
12439 0 1 26.9 20.3 13.5 
13244 0 1 23.6 18.1 14.5 
13363 0 1 28 19.2 14.5 
14179 0 1 24.7 20.3 15.5 
14141 0 1 23.6 21.4 15.5 
15077 0 1 24.7 18.1 16.5 
18764 0 1 28 18.1 20.5 
19664 0 1 28 18.1 21.5 
19662 0 1 28 20.3 21.5 
19581 0 1 24.7 22.5 21.5 
20597 0 1 29.1 18.1 22.5 
22337 0 1 26.9 18.1 24.5 
24079 0 1 24.7 20.3 26.5 
25004 0 1 25.8 18.1 27.5 
24942 0 1 23.6 20.3 27.5 
24979 0 1 24.7 20.3 27.5 
25998 0 1 29.1 19.2 28.5 
26779 0 1 24.7 20.3 29.5 
697 0 1 25.8 25.8 0.5 
756 0 1 28 26.9 0.5 
1584 0 1 24.7 25.8 1.5 
1595 0 1 25.8 28 1.5 
1594 0 1 25.8 29.1 1.5 
3507 0 1 29.1 29.1 3.5 
4359 0 1 28 23.6 4.5 
5186 0 1 24.7 28 5.5 
6098 0 1 25.8 24.7 6.5 
6095 0 1 25.8 28 6.5 
7044 0 1 26.9 25.8 7.5 
7107 0 1 29.1 29.1 7.5 
8906 0 1 29.1 28 9.5 
8734 0 1 23.6 29.1 9.5 
9639 0 1 23.6 23.6 10.5 
9746 0 1 26.9 28 10.5 
9687 0 1 24.7 29.1 10.5 
10535 0 1 23.6 28 11.5 
12503 0 1 29.1 24.7 13.5 
12456 0 1 28 26.9 13.5 
13239 0 1 23.6 23.6 14.5 
13356 0 1 28 26.9 14.5 
14184 0 1 24.7 25.8 15.5 
16059 0 1 28 23.6 17.5 
15998 0 1 25.8 24.7 17.5 
16103 0 1 29.1 24.7 17.5 
16106 0 1 29.1 28 17.5 
16885 0 1 24.7 26.9 18.5 
17007 0 1 29.1 29.1 18.5 
17856 0 1 28 26.9 19.5 
17906 0 1 29.1 28 19.5 
17734 0 1 23.6 29.1 19.5 
18746 0 1 26.9 28 20.5 
18634 0 1 23.6 29.1 20.5 
22296 0 1 25.8 26.9 24.5 
24142 0 1 26.9 23.6 26.5 
24095 0 1 25.8 28 26.5 
24206 0 1 29.1 28 26.5 
24983 0 1 24.7 24.7 27.5 
24984 0 1 24.7 25.8 27.5 
25884 0 1 24.7 25.8 28.5 
25956 0 1 28 26.9 28.5 
25946 0 1 26.9 28 28.5 
25947 0 1 26.9 29.1 28.5 
26736 0 1 23.6 26.9 29.5 
26735 0 1 23.6 28 29.5 
631 0 1 23.6 32.4 0.5 
751 0 1 28 32.4 0.5 
1590 0 1 24.7 32.4 1.5 
3508 0 1 29.1 30.2 3.5 
3450 0 1 26.9 32.4 3.5 
4351 0 1 28 32.4 4.5 
5188 0 1 24.7 30.2 5.5 
5309 0 1 29.1 31.3 5.5 
5191 0 1 25.8 32.4 5.5 
7053 0 1 28 30.2 7.5 
7051 0 1 28 32.4 7.5 
7833 0 1 23.6 30.2 8.5 
7950 0 1 26.9 32.4 8.5 
8731 0 1 23.6 32.4 9.5 
9753 0 1 28 30.2 10.5 
9749 0 1 26.9 31.3 10.5 
10533 0 1 23.6 30.2 11.5 
10589 0 1 24.7 31.3 11.5 
11432 0 1 23.6 31.3 12.5 
12388 0 1 24.7 30.2 13.5 
12452 0 1 28 31.3 13.5 
12450 0 1 26.9 32.4 13.5 
13233 0 1 23.6 30.2 14.5 