1900
Atoms. Timestep: 0
H 3.296840 0.820117 12.944800
H 2.312300 0.967945 13.228600
H 4.284390 0.636991 13.195700
H 1.594580 1.040860 13.971100
H 1.336000 1.019340 14.973300
H 2.322040 0.853859 14.956900
H 3.308080 0.688383 14.940400
H 2.810190 0.828164 14.084500
H 3.796230 0.662687 14.068000
H 4.294130 0.522906 14.923900
H 1.605830 0.909129 15.966700
H 2.331780 0.739774 16.685100
H 2.819930 0.714078 15.812700
H 3.805980 0.548601 15.796200
H 3.319330 0.556648 16.935900
H 1.084560 16.175500 20.498600
H 1.107380 16.282200 20.494100
H 1.531290 17.226400 20.514300
H 1.521980 17.112800 20.541100
H 0.507759 18.125200 19.568400
H 0.484132 18.208700 19.545600
H 0.714757 17.321400 19.944900
H 0.717711 17.228700 19.958300
H 1.528390 18.112200 20.271200
H 1.517620 18.221600 20.229400
H 1.070040 19.001000 19.715700
H 1.102080 18.906000 19.761300
H 4.444810 20.333700 22.572900
H 4.470650 20.313800 22.582300
H 4.617390 19.495400 23.155300
H 4.641200 19.475400 23.165200
H 4.584970 20.257500 23.801900
H 4.772600 19.065500 24.084200
H 4.789490 19.044900 24.095000
H 4.514370 20.655700 23.521000
H 4.301090 21.355800 22.493100
H 4.323520 21.335400 22.502500
H 4.239250 22.266500 22.947000
H 4.224750 22.287800 22.937200
H 4.426820 21.187700 23.470800
H 4.398670 21.632100 23.703300
H 4.394390 21.949800 24.117400
H 4.875780 19.137700 25.122400
H 4.868840 19.159200 25.110700
H 4.673790 20.021300 24.277300
H 4.710690 20.089400 24.779600
H 4.717520 20.363200 25.216000
H 4.876940 19.728800 25.972300
H 4.880330 19.751300 25.959700
H 4.678270 20.851500 25.426200
H 4.552540 21.019600 24.448500
H 4.558090 20.997700 24.459700
H 4.520120 21.781700 25.095100
H 4.442390 21.974000 24.642000
H 4.601820 21.339600 25.398300
H 4.645540 21.681600 26.337000
H 4.660280 21.705500 26.324000
H 4.792660 20.659900 26.416900
H 4.803990 20.683400 26.403800
H 0.632055 27.319000 2.155680
H 0.620659 27.279300 2.137840
H 1.127550 27.558700 3.032480
H 1.110630 27.490900 3.024920
H 0.562969 24.689800 8.860470
H 5.852690 24.490800 14.412600
H 5.810770 24.483400 14.444500
H 5.807050 24.505500 14.429100
H 5.822460 24.894100 15.394700
H 5.806600 24.922100 15.376800
H 5.851140 24.898300 15.364200
H 0.503051 24.188700 23.766100
H 0.774710 23.418300 23.189300
H 0.812150 23.414000 23.218700
H 1.265800 23.266500 24.088000
H 1.302500 23.266400 24.118500
H 4.240410 22.857700 23.796900
H 4.236240 22.880000 23.786300
H 0.773922 24.105500 24.246400
H 1.509580 23.568500 25.086700
H 1.479720 23.568200 25.054900
H 4.474980 22.519900 25.754100
H 4.487690 22.543800 25.741700
H 4.332490 22.973700 24.812800
H 4.326700 22.950400 24.824400
H 0.855557 24.263600 24.698800
H 1.377920 24.239300 25.864100
H 1.359150 24.242600 25.831000
H 0.811632 24.592000 25.119300
H 0.583898 25.034000 25.275600
H 0.936404 25.109000 26.208400
H 0.942780 25.099200 26.242400
H 0.587289 28.316300 2.213980
H 0.593367 28.275800 2.217340
H 0.542522 29.313500 2.272280
H 0.566075 29.272200 2.296830
H 1.454680 28.179700 3.716910
H 1.010380 28.726000 3.006870
H 1.004410 28.791000 2.988930
H 1.560630 29.161300 4.028390
H 1.466290 28.268500 3.705580
H 1.557510 29.258400 3.994630
H 0.959641 29.788300 3.047220
H 0.983085 29.722400 3.086370
H 0.497755 30.310800 2.330570
H 1.400100 30.172600 3.875900
H 1.376760 30.263100 3.822170
H 0.972478 31.013300 3.234430
H 1.016080 30.942600 3.300300
H 0.538782 30.268600 2.376330
H 0.511490 31.265100 2.455820
H 3.824600 28.576300 5.667150
H 3.817350 28.591500 5.630860
H 4.179080 29.515600 5.414410
H 4.163720 29.529700 5.363490
H 3.345220 29.702400 5.911350
H 3.576880 31.392500 5.752420
H 4.071460 30.560500 5.389710
H 4.088410 30.546400 5.445630
H 3.565280 31.407600 5.702510
H 1.988170 29.089600 6.834970
H 2.007440 29.108900 6.837570
H 0.947074 29.168100 7.502610
H 0.981978 29.189800 7.528720
H 1.488150 28.342700 7.215920
H 1.458610 28.321900 7.195820
H 2.272610 27.906100 6.700360
H 2.253930 27.887200 6.695640
H 2.825940 28.936200 6.289700
H 2.818840 28.918800 6.305110
H 3.119950 27.980300 6.136110
H 3.125160 27.997200 6.120190
H 1.708220 30.047900 7.007080
H 1.687070 30.028000 7.003970
H 0.889715 30.220600 7.554950
H 2.227500 30.814100 6.628730
H 1.236080 31.158800 7.287570
H 1.210880 31.138100 7.281090
H 2.216640 30.795700 6.643130
H 0.856400 30.198800 7.533830
H 2.526720 29.875200 6.459220
H 2.517740 29.857200 6.474120
H 3.047310 30.624900 6.113270
H 3.046000 30.641400 6.080870
H 3.348410 29.686400 5.944270
H 1.915530 31.734100 6.812130
H 1.928280 31.753100 6.798240
H 2.780820 31.844200 6.218070
H 2.781550 31.827300 6.252600
H 5.061910 28.912900 9.280340
H 5.087610 28.913900 9.295310
H 5.058440 28.915700 9.308540
H 5.474020 29.827000 9.023000
H 5.497670 29.827900 9.033910
H 5.481230 29.825500 9.053270
H 5.441010 30.859800 9.037330
H 5.425540 30.861100 9.011940
H 5.444430 30.861500 9.013720
H 4.597120 30.575000 9.491910
H 4.590310 30.567800 9.477030
H 4.606530 30.568200 9.473920
H 4.948550 31.741500 9.265010
H 4.929460 31.738000 9.250120
H 4.942160 31.738000 9.240150
H 2.580700 28.811000 10.634100
H 2.595080 28.811600 10.628100
H 2.557910 28.838800 10.628000
H 3.411800 28.327200 10.215700
H 3.391450 28.326300 10.210500
H 3.370650 28.346000 10.217700
H 3.590210 29.301000 10.074900
H 3.573260 29.300400 10.076300
H 3.561940 29.318100 10.082100
H 4.324130 28.364700 9.727880
H 4.299630 28.363600 9.715000
H 4.285910 28.374100 9.734760
H 4.408490 29.593700 9.611230
H 4.405830 29.602900 9.627520
H 4.428120 29.594400 9.614720
H 2.084620 29.687900 10.872300
H 2.092810 29.688000 10.854500
H 2.065440 29.720500 10.855700
H 2.036140 30.722000 10.861200
H 2.025220 30.754800 10.839700
H 2.039570 30.721700 10.834300
H 2.930710 29.981400 10.394300
H 2.919850 29.981200 10.407200
H 2.909340 30.005300 10.401100
H 3.768620 30.274800 9.934120
H 3.755080 30.274500 9.942120
H 3.753230 30.290200 9.946500
H 3.936890 31.248600 9.807920
H 3.944520 31.262200 9.810890
H 3.947030 31.248600 9.793320
H 3.100620 30.977400 10.265500
H 3.101660 30.955300 10.273000
H 3.109120 30.955200 10.253500
H 2.448250 31.636100 10.603900
H 2.448020 31.664600 10.584400
H 2.449630 31.635600 10.572900
H 3.210520 32.185400 10.169200
H 3.213110 32.184900 10.140400
H 3.220550 32.206200 10.158200
H 4.135800 32.234300 9.675280
H 4.118710 32.222700 9.673720
H 4.125440 32.222400 9.652530
H 5.280170 33.211400 14.907400
H 5.010340 33.321600 13.914000
H 4.303870 33.262800 16.652100
H 5.021590 33.189900 15.909600
H 11.417900 1.590760 18.216400
H 10.477200 1.768690 18.047700
H 10.527100 1.819540 18.025400
H 10.470700 1.809980 17.982600
H 10.466700 1.722280 18.040900
H 10.487100 0.706885 18.241600
H 10.468900 0.794510 18.183900
H 10.519100 0.801891 18.215200
H 10.484300 0.752555 18.245500
H 10.957200 2.630500 17.961500
H 10.979600 2.670620 17.970800
H 11.042200 2.714990 17.958100
H 10.980200 2.707980 17.906500
H 7.547230 2.115860 21.953400
H 7.576410 2.098790 21.995500
H 7.567760 2.128520 21.992000
H 7.540290 2.108990 21.973600
H 8.450510 1.825340 22.367500
H 6.955050 2.813940 21.491600
H 6.969230 2.826790 21.471500
H 6.975280 2.790840 21.514400
H 6.977000 2.830070 21.511900
H 6.866300 3.764680 21.080600
H 6.850040 3.723990 21.084000
H 6.848760 3.752240 21.067300
H 6.871410 3.767620 21.050800
H 7.848790 3.249360 21.599200
H 7.863320 3.240730 21.608900
H 7.865240 3.255810 21.585800
H 7.872820 3.264940 21.603100
H 8.624480 2.773900 22.043300
H 8.605880 2.755090 22.033700
H 8.595110 2.755520 22.045300
H 8.621870 2.761930 22.050800
H 9.509910 3.211820 22.145300
H 9.501880 3.184110 22.148000
H 9.520310 3.208770 22.134500
H 9.488850 3.190940 22.152900
H 8.751360 3.690610 21.703400
H 8.761250 3.684830 21.700000
H 8.742540 3.684780 21.706700
H 8.768650 3.699810 21.694300
H 10.671000 3.634940 22.308000
H 10.652700 3.657230 22.322700
H 10.651100 3.602040 22.349200
H 9.657250 4.113850 21.814200
H 10.636300 3.617320 22.346100
H 7.265340 4.681900 20.813800
H 7.249910 4.672460 20.814400
H 7.279970 4.686280 20.804100
H 7.234260 4.648190 20.819500
H 9.057000 5.551630 20.996200
H 8.024990 5.315810 20.791900
H 8.051010 5.328040 20.800500
H 7.996220 4.178620 21.260500
H 8.020610 4.185550 21.252000
H 7.992810 4.169400 21.261400
H 8.017000 4.190850 21.254000
H 9.037400 5.543300 21.029400
H 8.916610 4.614580 21.366300
H 8.889970 4.614040 21.368100
H 8.912830 4.625720 21.345200
H 8.880850 4.619280 21.355900
H 8.067200 5.335970 20.782900
H 8.085430 5.336590 20.797400
H 9.010350 5.547960 21.008400
H 9.071980 5.544320 21.032600
H 10.527400 4.590370 21.892300
H 9.969540 5.271100 21.396500
H 9.975270 5.253800 21.446600
H 10.560300 4.569550 21.876700
H 9.926310 5.282430 21.411200
H 10.530000 4.555620 21.921800
H 9.944790 5.260580 21.439900
H 10.553300 4.542880 21.928500
H 9.636280 4.120200 21.814200
H 9.664480 4.134680 21.785500
H 9.639400 4.140490 21.797800
H 9.437060 2.033070 22.602600
H 9.434070 2.041530 22.612900
H 9.470110 2.063650 22.605700
H 9.477740 2.065400 22.614900
H 8.492380 1.833260 22.398300
H 8.480300 1.847990 22.392400
H 8.447670 1.826260 22.384000
H 10.268500 2.733020 22.587200
H 10.235200 2.697100 22.599100
H 10.242500 2.683390 22.595900
H 10.272000 2.717720 22.574800
H 11.052700 18.162200 23.649000
H 11.048900 18.187600 23.638900
H 11.294300 17.236000 23.964400
H 11.312100 17.208500 23.957000
H 11.329100 19.114800 23.352400
H 11.339200 19.132000 23.329500
H 11.245900 27.661900 10.810300
H 11.362700 26.685200 10.338600
H 11.365900 26.727200 10.381700
H 11.224600 27.620000 10.761600
H 6.490650 25.070100 12.636400
H 6.512500 25.085400 12.620700
H 6.470840 25.059600 12.646700
H 6.965740 25.892000 12.280800
H 6.993960 25.928200 12.260600
H 6.990630 25.900100 12.271800
H 7.649540 27.636100 13.068800
H 7.410150 26.861800 12.424600
H 7.400190 26.818300 12.439100
H 7.423400 26.827100 12.429900
H 7.657770 27.590100 13.079100
H 7.673000 27.602900 13.068300
H 6.057430 24.559700 13.426000
H 6.094760 24.559300 13.408400
H 6.605480 25.650900 13.441800
H 6.631420 25.676300 13.418600
H 6.398610 25.411100 13.824300
H 6.275440 25.362800 14.340700
H 6.301510 25.379000 14.314500
H 6.273200 25.592300 14.799700
H 6.048090 24.544000 13.438600
H 6.865210 26.081300 13.247200
H 6.739800 26.262500 14.222500
H 6.750340 26.267200 14.216500
H 6.740110 26.242100 14.236900
H 7.070150 26.530200 13.338000
H 7.080250 26.564500 13.320600
H 7.206400 26.932700 13.645400
H 7.199170 27.155400 14.118500
H 7.204790 27.121500 14.133100
H 7.080980 27.113900 14.620800
H 6.874750 26.833400 15.032000
H 6.869260 26.858100 15.014400
H 6.080040 25.666000 16.034700
H 6.090530 25.672600 16.008400
H 6.056200 25.697900 16.015200
H 6.420440 25.969900 15.112400
H 6.410080 25.954100 15.135800
H 6.488970 26.624900 16.173300
H 6.988950 27.454900 15.808700
H 7.009390 27.424700 15.827100
H 6.988180 27.449000 15.812300
H 6.506720 26.606200 16.172400
H 6.614380 26.443700 15.197900
H 6.514490 26.592200 16.193000
H 7.669460 28.000800 14.029300
H 7.647990 28.043600 14.020400
H 7.672550 28.019500 14.016000
H 7.432140 27.940200 15.035200
H 7.405920 27.975100 15.024700
H 7.422170 27.965300 15.019100
H 11.319200 29.930400 16.791100
H 10.902200 29.892700 17.737900
H 10.975100 32.787600 18.456600
H 11.020400 32.788700 18.476800
H 11.012800 32.710400 18.509900
H 10.998800 32.748500 18.511400
H 11.002600 29.735300 18.756100
H 16.423700 1.209600 5.826940
H 16.409100 1.168360 5.808860
H 16.290800 1.835870 7.690400
H 16.313500 1.857200 7.715910
H 16.139300 1.398740 6.804210
H 16.118800 1.370450 6.781810
H 16.879000 2.439890 8.291170
H 12.608200 2.284120 18.353700
H 11.665200 1.976410 18.227600
H 11.678900 2.006540 18.235100
H 13.119500 2.077890 18.485900
H 13.060100 2.090490 18.447100
H 12.419800 1.363500 18.482900
H 12.365100 1.371540 18.450300
H 12.378300 1.342460 18.499300
H 12.373200 1.322320 18.493800
H 11.720100 0.649115 18.479900
H 11.670100 0.652597 18.453400
H 11.430100 1.014600 18.367700
H 11.431300 1.047510 18.372400
H 11.473400 1.591520 18.254100
H 13.325300 1.637410 18.626200
H 13.316200 1.630030 18.619900
H 13.312300 1.152320 18.684100
H 14.261400 1.948570 18.716600
H 13.366100 1.135490 18.711700
H 12.626000 2.301490 18.362000
H 12.112900 2.309710 18.213200
H 12.173100 2.305910 18.257100
H 12.873600 3.260520 18.224600
H 12.843300 3.245930 18.213700
H 12.942900 3.276610 18.225700
H 12.876500 3.285010 18.172900
H 11.827100 3.188200 18.024700
H 11.860800 3.247870 17.976200
H 11.856700 3.216670 18.035600
H 11.926400 3.248320 18.031400
H 13.819200 2.792280 18.488900
H 13.755200 2.809430 18.443900
H 13.733500 2.788240 18.477700
H 13.757800 2.790430 18.487200
H 13.077700 0.678373 18.763500
H 13.081200 0.668224 18.759900
H 14.312500 0.907467 18.940400
H 14.320500 1.925120 18.750500
H 14.272300 1.932360 18.753100
H 14.259300 1.937750 18.746000
H 14.279400 0.916218 18.950900
H 14.279700 0.922354 18.946700
H 14.259500 0.933102 18.918000
H 12.037800 16.509100 24.193800
H 12.009500 16.532200 24.218900
H 13.002900 16.264600 24.334100
H 13.035300 16.251600 24.296100
H 14.008400 16.505100 24.279200
H 14.037300 16.504800 24.236300
H 14.768900 19.936600 0.656919
H 14.751100 19.903100 0.668279
H 15.228700 20.298800 1.497120
H 15.255700 20.336100 1.478590
H 16.137500 20.910700 0.917913
H 15.989500 20.869600 1.906010
H 16.024800 20.903400 1.876750
H 16.166900 20.932700 0.887371
H 16.870000 21.486300 1.744700
H 16.829500 21.462400 1.785380
H 12.182200 17.683200 23.824200
H 12.171100 17.698300 23.831800
H 13.047800 18.160600 23.699200
H 13.052200 18.157900 23.691500
H 13.043700 17.204700 23.993800
H 13.025400 17.212600 24.016600
H 12.190700 18.636300 23.522000
H 12.193500 18.646300 23.514300
H 13.913800 17.679400 23.861000
H 13.902100 17.674800 23.884000
H 14.775300 17.201000 24.030600
H 14.756400 17.189100 24.068800
H 15.046600 18.133500 23.759400
H 15.051700 18.153600 23.734000
H 13.924500 18.622800 23.566500
H 13.922300 18.632600 23.558700
H 12.087200 19.816000 23.119200
H 12.067200 19.810900 23.146700
H 13.060700 19.111000 23.389200
H 13.070200 19.108500 23.381700
H 13.092600 20.056500 23.064300
H 13.069200 20.064200 23.086900
H 14.066600 19.806600 23.189200
H 14.086000 19.789000 23.179500
H 14.792300 19.107300 23.426000
H 14.801300 19.085100 23.433900
H 15.741400 20.441400 30.928200
H 15.748100 20.437900 30.905300
H 16.581500 21.034200 30.807600
H 16.593400 21.020900 30.773200
H 14.684600 19.788300 32.495500
H 14.694800 19.811900 32.485900
H 15.053200 19.995400 31.532100
H 15.047100 19.985400 31.546100
H 15.518300 20.427500 33.153000
H 15.666300 20.468600 32.164900
H 15.681100 20.478800 32.142100
H 15.539000 20.449400 33.131400
H 16.285500 20.951900 32.783800
H 16.433500 20.993100 31.795700
H 16.451200 20.991500 31.762600
H 16.309100 20.962100 32.752000
H 15.875300 27.243400 5.203290
H 15.367300 26.352100 5.342050
H 15.862000 27.203600 5.204560
H 15.358900 26.311500 5.355940
H 14.775900 25.271600 6.961690
H 14.756900 25.305100 6.932950
H 14.961400 25.604400 5.999090
H 14.957900 25.642600 5.975150
H 16.203100 27.801200 6.794010
H 15.302500 26.202000 7.588540
H 15.357100 26.303000 6.595180
H 15.346600 26.336700 6.581050
H 15.735300 27.030800 7.186960
H 15.752800 27.001600 7.191270
H 15.805300 27.137100 6.195120
H 15.807400 27.102600 6.197920
H 16.194000 27.831200 6.801030
H 15.276700 26.230400 7.572890
H 14.818000 25.430000 7.958820
H 14.852200 25.402400 7.985800
H 15.169900 25.961600 8.797020
H 15.124900 25.983800 8.777870
H 16.148600 27.700100 7.787360
H 16.103300 27.709500 9.031870
H 15.595400 26.818200 9.170630
H 15.665300 26.924500 8.178790
H 15.698300 26.900600 8.184630
H 15.643700 26.799500 9.177980
H 16.124000 27.724900 7.792860
H 16.146800 27.691600 9.026600
H 11.936200 25.832000 10.217200
H 12.791500 25.288800 10.429900
H 12.775800 25.310500 10.450400
H 11.925900 25.866500 10.250000
H 13.687900 25.208000 10.929200
H 13.699400 25.201300 10.919700
H 12.466900 26.435000 10.869700
H 12.175200 26.837300 10.901300
H 12.126900 27.332700 11.149900
H 12.889600 26.139100 10.947000
H 12.273300 27.687500 11.418400
H 13.347900 26.105700 11.209300
H 14.417900 25.586700 11.558100
H 14.416500 25.592900 11.555300
H 13.085800 27.839600 11.981200
H 12.987700 26.989300 11.464100
H 13.008000 27.003500 11.489500
H 13.889000 26.674200 11.829100
H 13.549000 27.571900 12.109200
H 14.770000 26.345000 12.168700
H 14.750800 26.358700 12.166600
H 14.612700 27.293400 12.589500
H 14.650000 27.279700 12.597200
H 13.800200 27.141400 12.026800
H 13.702100 26.291100 11.509700
H 14.916200 29.496200 1.662150
H 14.866400 29.515900 1.623080
H 15.001500 30.317800 1.038160
H 14.937000 30.346700 1.009460
H 15.242200 31.323700 0.854880
H 15.339600 30.204200 2.172830
H 15.379900 30.191300 2.211460
H 15.578000 31.089100 1.818260
H 15.527500 31.108100 1.788730
H 15.312400 31.291800 0.875749
H 16.239800 32.682100 1.974380
H 16.188500 32.700400 1.954390
H 15.700300 32.185300 1.200750
H 15.765700 32.157200 1.218430
H 15.049400 29.053900 2.531300
H 15.079400 29.047000 2.580510
H 15.437000 29.084700 3.490780
H 15.447400 29.090800 3.547170
H 15.843600 30.886400 2.760770
H 15.812700 30.892600 2.722580
H 15.645500 29.988600 3.153970
H 15.624800 29.988600 3.106680
H 16.098000 30.677000 3.656440
H 16.109100 30.683700 3.703290
H 16.770900 32.276700 3.859400
H 16.307200 31.581600 3.310090
H 16.285900 31.580900 3.272340
H 16.041700 31.784200 2.367580
H 16.000600 31.796500 2.338490
H 16.576100 32.731200 2.913870
H 16.607700 32.725800 2.941040
H 16.759100 32.269300 3.822090
H 12.991500 29.612400 5.516400
H 12.980500 29.630600 5.481120
H 15.925200 29.599800 4.244420
H 16.345700 28.077700 5.596050
H 15.921500 29.615700 4.303120
H 16.335800 28.041500 5.585520
H 12.972300 29.694100 5.503130
H 13.931700 31.432000 5.746440
H 13.470200 30.516300 5.356750
H 13.462300 30.594600 5.358900
H 13.453500 30.536400 5.315070
H 13.927100 31.367100 5.729890
H 13.906000 31.392100 5.682150
H 16.685600 31.455000 4.483390
H 16.688500 31.438500 4.435710
H 16.374700 30.481000 4.645800
H 16.383300 30.461400 4.590290
H 12.451800 28.587900 7.103750
H 12.426300 28.621200 7.100130
H 12.453100 28.563200 7.131660
H 12.957500 29.539900 7.715160
H 12.963200 29.508500 7.749800
H 12.951100 29.547700 7.734220
H 12.613900 28.917400 6.135820
H 12.995600 29.633400 6.720300
H 13.004000 29.607700 6.755600
H 12.989400 29.665500 6.741950
H 12.619200 28.897500 6.166060
H 12.593100 28.971800 6.140460
H 16.713800 28.756400 7.440960
H 16.729700 28.731500 7.420850
H 16.652700 28.631600 6.415100
H 16.653400 28.600700 6.396740
H 13.377200 30.349400 7.304780
H 13.388700 30.317900 7.345140
H 13.385700 30.359100 7.343440
H 13.797000 31.158900 6.894400
H 13.820300 31.170500 6.952660
H 13.814200 31.127300 6.940490
H 13.429500 30.417100 6.350950
H 13.424000 30.476900 6.351170
H 13.415300 30.442900 6.309920
H 14.239800 31.936700 6.535830
H 14.254800 31.981900 6.561880
H 14.345100 32.096900 7.586750
H 14.324400 32.072500 7.558630
H 14.302600 32.110900 7.505810
H 14.216800 31.968400 6.484020
H 12.516500 28.736300 8.125000
H 12.537700 28.699100 8.154450
H 12.537700 28.730400 8.125530
H 12.848500 29.306700 8.927400
H 12.839600 29.286200 8.940450
H 12.850400 29.268700 8.960400
H 16.512700 28.418900 8.398770
H 16.544300 28.398700 8.383450
H 13.307200 30.119400 9.333540
H 13.301000 30.162400 9.294490
H 13.309100 30.123500 9.327980
H 13.339100 30.255900 8.299630
H 13.348000 30.218600 8.339340
H 13.347400 30.241300 8.335710
H 13.773500 31.028000 7.934690
H 13.758900 31.065400 7.889250
H 13.782000 31.052700 7.944930
H 13.799000 31.024000 9.183760
H 13.773900 31.068200 9.128430
H 13.786000 31.023300 9.173890
H 14.158300 31.738200 8.524230
H 14.140500 31.781400 8.473730
H 14.178200 31.746300 8.546420
H 11.558900 28.385700 11.372800
H 13.183900 28.689800 12.498200
H 13.240100 28.696500 12.528500
H 12.328000 28.798900 12.049700
H 12.276100 28.777300 12.008500
H 12.668000 27.901200 11.769600
H 11.598100 28.420200 11.420800
H 14.039200 28.146700 12.710900
H 14.090100 28.140400 12.728900
H 13.149800 29.640600 16.039600
H 14.072800 29.390800 16.436200
H 12.141900 29.838100 16.169500
H 12.991500 29.543000 17.022100
H 12.833100 29.445500 18.004600
H 11.917900 29.590400 18.380400
H 13.748400 29.300600 17.628900
H 14.663700 29.155700 17.253100
H 14.764100 28.998200 18.271400
H 13.590100 29.203000 18.611400
H 12.076200 29.687900 17.397800
H 12.666500 33.275100 18.708600
H 12.130700 33.237400 18.636600
H 12.138100 33.214500 18.633800
H 12.617300 33.287400 18.687300
H 16.789600 33.300800 18.695000
H 12.516500 29.250400 19.969700
H 12.674800 29.347900 18.987100
H 11.593400 29.500100 19.573000
H 14.347100 28.960600 19.218100
H 13.524400 29.052900 19.839800
H 11.903100 32.252700 18.773900
H 12.899900 32.322200 18.963000
H 12.919300 32.310400 18.962800
H 12.913100 32.332700 18.934400
H 12.869500 32.349200 18.924300
H 11.883000 32.278400 18.774000
H 11.853800 32.312100 18.727600
H 11.896700 32.304400 18.740100
H 13.797400 32.866000 19.007700
H 13.750100 32.889100 18.994000
H 13.789200 32.868100 19.026100
H 13.777000 32.868300 19.027800
H 16.487700 31.624200 19.742700
H 16.436900 32.396600 19.055300
H 20.037000 4.913390 0.857518
H 20.106300 4.891980 0.908069
H 20.060800 4.904850 0.931903
H 20.068500 4.904710 0.887212
H 20.051000 4.933130 0.893568
H 22.128900 5.497910 1.496170
H 21.181600 5.285180 1.153420
H 21.203800 5.284930 1.181870
H 20.670900 4.576320 1.662430
H 20.682200 4.570600 1.689420
H 20.639500 4.599110 1.638550
H 20.713300 4.575820 1.684810
H 20.657000 4.600610 1.664230
H 21.556100 4.634820 2.176400
H 21.590700 4.604950 2.184500
H 21.567300 4.613910 2.179080
H 21.610300 4.626050 2.199210
H 21.672200 5.275580 1.447240
H 21.532400 4.652490 2.159610
H 21.703000 5.284620 1.452460
H 21.667500 5.278040 1.438250
H 20.907200 5.425530 0.820942
H 22.100200 5.515240 1.474670
H 21.767800 5.942160 0.697427
H 21.795600 5.943190 0.705711
H 20.951000 5.417590 0.806890
H 20.918100 5.423430 0.792320
H 17.962300 1.685660 4.660060
H 17.961100 1.756270 4.670510
H 17.463900 1.818450 5.786930
H 17.906000 2.080070 5.614990
H 17.083800 1.283730 5.032250
H 17.090600 1.340460 5.045950
H 18.809000 2.266450 4.792040
H 18.326500 2.309810 5.666820
H 18.802200 2.345600 4.801220
H 19.388300 2.950540 5.403050
H 19.397200 2.870470 5.392810
H 17.082200 2.130540 7.137690
H 17.137300 1.806740 6.193210
H 16.981400 1.861810 6.661710
H 17.844000 2.353170 6.541600
H 17.850900 2.403870 6.559480
H 17.361500 2.396530 7.416390
H 17.795800 2.727680 7.503960
H 18.224100 2.887890 7.296280
H 18.564500 3.001010 6.925750
H 18.706600 2.844530 6.421500
H 18.619600 2.677210 5.981260
H 19.278100 3.598150 7.292020
H 19.279000 3.537980 7.274350
H 19.562500 3.409010 6.314750
H 19.569200 3.335890 6.301390
H 17.725800 3.020680 8.423140
H 17.740700 3.051480 8.448450
H 18.604200 3.422610 8.050960
H 18.611300 3.467280 8.073010
H 16.899700 2.462150 8.317740
H 21.941500 3.542520 8.161470
H 21.983000 3.555030 8.126900
H 21.990000 3.540880 8.139200
H 21.525900 2.953180 8.834390
H 21.498300 2.948020 8.883880
H 21.537200 2.951170 8.859600
H 19.511800 5.698710 9.231580
H 19.490400 5.765000 9.234080
H 22.180700 1.892140 10.429300
H 22.161300 1.887770 10.444700
H 22.158700 1.875480 10.395800
H 21.590200 2.338420 9.664860
H 21.607000 2.347690 9.697850
H 21.578700 2.342340 9.719590
H 19.834900 5.144430 11.354400
H 19.177000 4.934100 9.766140
H 19.176300 4.885650 9.777550
H 19.124200 4.365680 10.671200
H 19.151100 4.390920 10.647100
H 19.679300 5.172570 10.873200
H 19.713600 5.470990 10.417100
H 19.873000 5.839080 10.153400
H 19.419700 4.281000 11.640800
H 20.427700 5.371920 12.970800
H 20.492900 5.354760 12.942700
H 19.846700 4.646430 12.514800
H 19.910800 4.633780 12.481100
H 20.040500 5.312940 11.795000
H 19.369600 4.278120 11.673100
H 20.371500 5.681310 12.005400
H 17.696900 0.637485 19.517400
H 18.449700 0.883423 20.127900
H 18.244500 1.711060 19.228600
H 17.451200 1.240500 18.758500
H 18.956800 1.732380 19.979500
H 22.207000 0.850212 18.894200
H 22.184400 0.798769 18.959500
H 22.216100 0.775816 18.946600
H 19.448200 0.526347 21.497300
H 19.397400 1.298740 20.809900
H 19.886500 5.511130 32.879800
H 19.900400 5.543280 32.924900
H 19.921400 5.511080 32.915100
H 19.893000 5.518120 32.968900
H 19.952000 5.489810 32.931100
H 20.825500 5.756260 33.239200
H 20.805100 5.741180 33.201000
H 21.753700 5.946210 0.709981
H 21.750600 5.969240 0.699508
H 21.723700 5.971240 0.668280
H 17.639600 8.901490 2.196420
H 17.663300 8.916250 2.134210
H 18.239000 9.642040 1.672050
H 18.201600 9.625670 1.715390
H 19.114200 10.192200 1.617980
H 19.072200 10.180600 1.638490
H 20.018000 10.417500 1.986320
H 20.054600 10.419300 1.986500
H 17.920400 7.714790 3.781530
H 17.906300 7.710660 3.711320
H 17.541600 8.209320 2.880640
H 17.536600 8.202060 2.952680
H 18.449400 8.597970 3.037860
H 18.444900 8.597960 3.088140
H 18.777300 9.309760 2.469500
H 18.798100 9.314330 2.433570
H 19.353100 8.993860 3.223610
H 19.357200 8.986620 3.195090
H 19.008500 8.270260 3.799380
H 19.020600 8.282050 3.842250
H 19.928800 8.677950 3.977710
H 19.916400 8.658910 3.956610
H 20.261300 9.389750 3.359070
H 20.265100 9.375270 3.352310
H 19.685600 9.705660 2.604960
H 19.705900 9.702980 2.590790
H 20.808200 10.262600 2.678860
H 20.785700 10.272900 2.665680
H 21.169500 9.785650 3.494530
H 21.172900 9.763920 3.509540
H 18.659800 7.553900 4.403670
H 18.688100 7.570240 4.460890
H 19.600200 7.781030 4.772190
H 19.633900 7.807150 4.808720
H 20.475500 8.331200 4.718130
H 20.504500 8.362040 4.731820
H 21.051100 9.056990 4.255960
H 21.066600 9.086220 4.250790
H 20.040900 6.586990 9.179600
H 20.007400 6.660980 9.193440
H 20.128800 6.334420 10.130800
H 20.234300 5.979450 11.075200
H 20.250200 6.007870 11.068100
H 20.428100 6.645970 10.355400
H 20.589500 7.381950 9.655110
H 20.621900 7.312480 9.635550
H 20.665400 6.871300 10.781700
H 20.789300 6.786340 11.277200
H 21.099000 7.680790 10.477200
H 21.080600 7.734740 10.495400
H 20.595600 6.119830 11.997000
H 21.009900 6.250730 12.902100
H 20.956800 6.260200 12.918800
H 21.292300 7.073250 12.372800
H 21.323300 7.081630 12.370000
H 20.786700 6.544750 11.719100
H 21.349200 7.624810 11.489100
H 21.344400 7.593230 11.479200
H 20.245600 6.267560 32.270700
H 20.223700 6.246110 32.311400
H 20.228300 6.232150 32.220200
H 20.291600 6.209120 32.268600
H 20.269000 6.232960 32.259500
H 22.297400 6.653560 33.071100
H 22.265800 6.657310 33.037100
H 20.970800 6.883260 31.909500
H 21.034300 6.857180 31.952000
H 21.945200 7.303670 32.076600
H 21.018200 6.876920 31.950100
H 20.964500 6.893730 31.989500
H 20.994000 6.911910 31.960200
H 21.018400 6.087560 32.905500
H 21.968200 7.270410 32.069800
H 21.915000 7.290000 32.030900
H 21.980900 7.260340 32.066200
H 21.916700 7.287460 32.089400
H 21.347200 6.427250 32.715900
H 21.372300 6.440570 32.756800
H 21.888300 6.601770 32.812900
H 21.868000 6.606280 32.810600
H 21.835200 6.616830 32.826700
H 21.043600 6.076160 32.914100
H 20.988700 6.096160 32.937700
H 16.904600 21.435200 0.548681
H 17.564900 21.928800 1.117820
H 17.523800 21.918400 1.167550
H 16.937000 21.445500 0.507910
H 17.556600 17.929100 27.742400
H 17.565300 17.871600 27.750800
H 17.282800 19.903800 27.583000
H 17.227900 18.875200 27.480300
H 17.293600 19.845200 27.574700
H 17.238800 18.815800 27.479400
H 18.180900 17.319300 28.299200
H 18.185800 17.265700 28.316100
H 18.113700 18.502700 28.299300
H 18.108200 18.556400 28.292200
H 18.796600 18.196300 28.921800
H 18.798000 18.147100 28.935900
H 18.933500 17.208900 29.001500
H 18.933900 17.160300 29.023900
H 19.612700 17.627700 29.661000
H 17.977900 19.489500 28.211300
H 17.971300 19.543700 28.212600
H 18.659700 19.183600 28.842100
H 18.522800 20.170900 28.762400
H 18.526300 20.120600 28.759800
H 18.662200 19.133800 28.847800
H 19.211200 19.810800 29.391900
H 19.210600 19.765000 29.396300
H 19.346400 18.778200 29.484400
H 19.348100 18.823500 29.471600
H 18.390500 21.107400 28.671700
H 18.385900 21.158300 28.682700
H 17.715200 20.684000 28.011100
H 17.706700 20.739500 28.023200
H 19.138600 21.002000 29.379500
H 19.138500 21.047900 29.385000
H 19.609200 17.583700 29.684500
H 20.030700 18.422500 30.120900
H 20.036600 18.463400 30.101200
H 20.085600 19.451900 30.216200
H 20.091500 19.492000 30.203900
H 19.759000 20.396100 29.944900
H 19.762800 20.438100 29.941800
H 17.362400 21.588100 31.171400
H 17.342200 21.605000 31.216500
H 17.923400 22.112300 33.018100
H 17.886300 22.115500 33.072000
H 17.079200 21.474900 32.372500
H 17.819800 22.000700 32.045300
H 17.849200 21.987600 31.993100
H 17.052600 21.476300 32.414600
H 17.961500 27.345900 1.325960
H 17.808900 26.614300 2.103290
H 17.792900 26.681800 2.102010
H 17.954100 27.275300 1.319890
H 18.369200 27.778600 2.130030
H 18.358900 27.724800 2.116170
H 18.332500 27.319300 3.017550
H 18.341600 27.272800 3.007980
H 18.256400 26.611400 4.052530
H 18.221300 26.651100 4.055280
H 17.888000 26.427500 3.101010
H 17.919500 26.371300 3.103500
H 18.740200 27.752000 3.821610
H 18.746400 27.722300 3.804260
H 18.703500 27.292700 4.709140
H 18.729100 27.270200 4.696070
H 19.802900 25.444700 19.909400
H 20.163600 26.080300 19.176100
H 20.598000 26.388600 20.022300
H 20.757100 26.881000 18.896300
H 21.228400 27.164700 20.006800
H 21.424400 27.632500 19.145000
H 20.078300 25.260600 21.881700
H 20.402100 25.920800 20.884200
H 19.771700 25.144700 20.899700
H 20.836500 26.229100 21.730400
H 21.032500 26.696900 20.868600
H 21.662800 27.473000 20.853100
H 21.466900 27.005200 21.714900
H 20.640500 25.761300 22.592200
H 21.307800 26.512700 22.840900
H 21.901300 27.313500 22.561200
H 20.532000 23.563700 24.992100
H 21.013800 23.201300 25.833600
H 20.245500 24.360400 24.396300
H 20.231200 25.377900 24.206000
H 20.896600 24.374100 25.450700
H 20.746200 25.281200 25.057600
H 21.261200 25.184400 25.909300
H 20.492900 26.343600 24.472000
H 21.110800 26.091500 25.516300
H 20.960500 26.998600 25.123200
H 21.508600 27.167600 25.985000
H 21.562000 23.370200 26.695400
H 22.029500 24.025300 27.346600
H 22.291200 24.990900 27.612700
H 21.411600 24.277300 26.302400
H 21.776200 25.087700 26.761000
H 22.276900 26.008400 27.422300
H 21.625900 25.994800 26.367900
H 21.990500 26.805100 26.826500
H 18.316200 28.177200 0.963212