9000
Atoms. Timestep: 0
O 3.733190 0.991841 1.116470
O 3.249870 1.537990 1.741840
O 4.012280 1.185390 2.146980
O 4.594760 0.480443 2.232940
O 5.575910 31.160200 0.901314
O 5.731690 31.445300 1.763570
O 4.899770 31.259300 2.123820
O 4.018240 32.043300 1.821980
O 4.019120 32.953500 1.403300
O 5.393040 33.036900 1.787510
O 3.992880 31.325600 2.459300
O 6.390030 0.774477 2.191030
O 7.019060 2.078910 1.724270
O 6.180430 1.610240 1.756040
O 6.024170 0.647241 1.317580
O 8.655210 1.127030 1.591980
O 7.878220 1.686680 1.700710
O 8.073350 0.866541 0.871906
O 7.756300 30.560700 1.435060
O 8.344190 30.251400 0.703475
O 9.054880 31.134300 0.697933
O 8.015450 31.370200 1.913210
O 8.155340 33.025200 1.555820
O 8.104330 32.279100 2.195910
O 9.456150 29.665600 32.166900
O 7.936470 31.020400 33.177300
O 9.315660 30.427700 31.619000
O 9.400370 29.729700 33.150000
O 9.783230 30.633600 33.236400
O 8.564090 31.697600 33.018900
O 5.291400 4.656780 2.117840
O 4.594370 5.584480 1.900980
O 4.738250 4.800760 1.385300
O 4.094290 2.216580 29.626700
O 4.862230 0.722650 28.835200
O 4.904640 1.451010 29.413500
O 4.954920 2.223660 29.967800
O 4.125910 3.003110 30.250500
O 4.885270 3.553080 30.408800
O 5.616660 3.013000 30.201100
O 3.777670 30.834000 29.392300
O 3.773650 29.782000 29.382300
O 3.803580 30.275100 28.597400
O 4.311470 31.281400 28.752100
O 5.055630 32.634300 28.606200
O 5.111610 31.729700 29.043200
O 6.410150 2.978680 1.332790
O 6.474450 3.759640 1.973920
O 6.995260 4.527630 1.885210
O 6.103300 5.032410 1.710410
O 7.092150 5.284640 2.431290
O 6.463040 5.547100 3.116990
O 7.015070 2.543400 31.369200
O 6.250600 2.476500 30.749500
O 7.220420 1.968100 32.141100
O 6.382980 1.615080 32.567200
O 6.198960 2.479840 32.821000
O 6.743320 3.131490 33.240700
O 6.399150 5.951500 1.793230
O 6.729370 6.287290 2.609740
N 2.136620 0.946674 3.946780
N 5.215600 0.524723 3.847640
N 1.818490 1.869390 4.139250
N 1.208010 1.770590 5.761440
N 0.713263 2.033830 5.004640
N 1.780490 2.594470 5.760680
N 2.044190 2.023650 6.395030
N 4.757960 1.229730 6.508690
N 5.008740 0.898095 7.348350
N 0.729167 1.956980 8.728180
N 1.012650 1.016730 8.219640
N 3.902180 0.900824 9.310360
N 5.539960 0.834290 8.158690
N 1.724240 1.376670 11.366500
N 1.357300 0.516759 11.070300
N 3.816820 0.516502 10.890100
N 2.644590 1.074850 11.251100
N 2.584430 1.242260 12.215300
N 2.887940 1.824230 12.921200
N 5.022230 1.527310 12.894600
N 5.492960 0.548568 12.638300
N 5.555340 2.320760 13.057600
N 1.880940 1.989860 14.785400
N 2.435810 1.975830 14.044000
N 2.955910 1.671410 14.813900
N 3.417910 1.577720 13.719000
N 3.955260 1.471580 14.705900
N 5.756400 1.283260 13.492200
N 5.133980 1.644490 14.678800
N 5.850460 1.088890 14.394500
N 1.823500 3.561830 13.948300
N 3.265000 2.527570 13.628900
N 2.908450 3.292150 14.158300
N 2.554000 4.166210 14.014500
N 0.626553 1.046130 16.106800
N 0.906517 1.999850 15.275500
N 0.734135 1.990210 16.233000
N 2.914200 1.536300 16.351900
N 2.359440 1.763260 15.602000
N 4.061280 1.379460 16.474700
N 3.560520 1.576490 15.708300
N 4.688190 1.284610 15.654400
N 5.451140 1.740610 15.597400
N 4.414630 2.152730 15.306900
N 1.177850 1.080310 16.957900
N 4.136620 1.137630 17.447300
N 4.945410 1.059380 18.427400
N 4.138210 0.550390 18.254300
N 5.858140 1.960030 19.461800
N 5.019600 1.839600 19.008100
N 5.812420 2.492330 20.481400
N 5.510580 2.359290 21.814900
N 4.945440 3.461780 21.796400
N 5.916760 3.610140 20.626700
N 4.985410 3.649030 20.886500
N 5.907870 3.176500 21.470000
N 5.430750 5.163710 21.560200
N 4.899030 4.977210 20.771000
N 4.331740 5.129500 21.538500
N 5.687100 4.143970 21.581900
N 5.449930 0.498251 22.865800
N 5.558830 3.733230 22.454700
N 1.176090 2.155230 32.010000
N 1.035550 1.179270 32.128200
N 1.892750 0.736743 31.952600
N 0.820199 3.093430 31.897200
N 0.631370 3.214860 32.779400
N 5.874740 6.796570 18.456300
N 0.596713 7.396770 23.753400
N 1.067720 6.270090 25.624500
N 2.133580 7.517950 25.015600
N 1.404350 6.924720 24.681800
N 1.880080 6.714330 25.531800
N 1.201120 6.032930 24.568700
N 0.569115 8.074480 24.430400
N 3.781710 8.747470 30.733200
N 3.062060 10.462100 30.276700
N 3.590240 9.675770 30.460500
N 2.858930 10.371500 31.182700
N 1.628570 11.356000 32.319700
N 2.387580 11.076600 31.741500
N 1.206340 12.014600 0.882173
N 4.519800 15.085900 14.969400
N 5.179480 15.789600 15.002100
N 0.894745 13.516100 16.704300
N 2.263440 14.772600 16.798500
N 1.467200 14.611800 16.297500
N 3.138630 14.869200 16.421000
N 4.018210 15.048000 16.039800
N 4.903190 14.760200 15.802800
N 5.070250 16.689900 15.334200
N 0.680026 12.856200 17.372400
N 1.276110 14.257900 17.152100
N 1.469450 16.652400 18.641300
N 0.902779 15.736400 18.264500
N 0.547375 13.596500 19.615600
N 0.988405 14.292200 20.100000
N 1.342920 15.472900 19.812200
N 1.802920 15.801200 19.078500
N 2.091870 15.963000 20.180800
N 1.007310 16.369900 19.409200
N 1.803040 16.862500 19.567600
N 1.041120 15.048600 20.897100
N 1.785740 16.672200 21.524000
N 0.660755 16.379300 21.642200
N 1.896380 15.458400 20.943600
N 2.552600 16.290400 21.190000
N 1.816910 16.613200 22.503900
N 0.884384 16.469900 22.640300
N 0.676060 12.998700 24.373200
N 5.181080 15.826900 25.450000
N 5.237180 16.499900 26.110800
N 5.874450 15.378000 26.057300
N 5.061780 16.342600 27.735500
N 4.781750 16.778900 26.869600
N 4.924530 15.532800 26.376800
N 0.914314 11.782500 32.849100
N 5.589930 17.560600 12.818200
N 5.607630 18.506900 12.625300
N 2.730620 21.114000 13.076600
N 2.561440 21.780600 12.440300
N 5.820980 21.977300 12.921600
N 4.826340 17.049300 14.481800
N 4.739380 17.880500 13.983000
N 5.437370 18.224100 13.512000
N 3.169500 20.398900 13.444400
N 3.673150 19.717300 13.907600
N 3.831860 22.353300 14.592300
N 4.307020 21.990600 13.601900
N 4.382480 21.633800 14.452500
N 5.717870 21.469400 14.408700
N 1.068440 18.486600 15.926200
N 0.493736 17.134500 16.570700
N 1.514410 19.573500 16.536000
N 1.812130 20.491000 16.430400
N 1.728960 21.426100 16.472700
N 5.578380 20.913800 16.077200
N 0.955824 17.438700 18.709400
N 0.838505 18.383800 17.644900
N 0.707873 18.529100 18.580800
N 0.906966 19.123000 17.098100
N 0.805897 19.865300 18.186700
N 1.392580 19.196600 18.610400
N 2.173010 19.893300 18.623300
N 0.495294 20.876900 17.693100
N 1.355650 21.107100 17.295900
N 2.527690 20.674500 18.261600
N 3.470760 20.567100 18.062800
N 3.225060 22.268500 17.426100
N 1.516560 17.922300 19.288800
N 2.297290 17.650900 19.921100
N 0.991362 19.915900 20.329700
N 2.159040 18.728100 19.387800
N 3.041840 19.460100 18.877300
N 2.637760 19.503100 19.706800
N 3.296740 20.473500 19.060300
N 5.524430 19.080900 20.013100
N 3.144500 21.598400 19.530700
N 4.023540 20.787400 19.602800
N 3.700580 21.396700 20.292200
N 0.533757 18.118200 20.628300
N 0.573681 17.166500 21.017200
N 1.162130 17.905600 21.301700
N 0.924971 17.234300 22.076800
N 2.571230 17.008900 20.557500
N 1.037300 18.927100 20.864800
N 1.038610 19.469500 21.828500
N 3.760120 20.032000 21.821000
N 4.902670 19.401600 20.631600
N 4.152490 19.977100 20.815700
N 4.620270 19.717200 21.638300
N 2.797790 22.011100 21.650400
N 3.818200 21.555800 21.468500
N 3.443740 20.791600 22.333800
N 5.446580 20.852500 22.114800
N 4.763180 21.727200 21.550100
N 5.075760 22.211000 22.317500
N 4.658010 20.716800 21.624400
N 0.715804 18.609400 23.993600
N 2.194920 18.480600 23.131500
N 3.981060 18.541900 23.478800
N 3.759740 17.620000 23.513400
N 3.836740 18.084500 22.608100
N 5.044950 18.097900 23.520900
N 4.652790 18.626800 22.429400
N 1.629000 18.743200 23.888200
N 0.896800 19.754600 22.708200
N 3.700880 20.110500 23.170500
N 3.099660 18.903000 23.041200
N 3.889730 19.532900 23.903300
N 3.818230 19.162300 22.454700
N 5.437400 20.375700 23.126700
N 5.571600 19.705900 23.835400
N 5.495320 18.868500 23.320200
N 1.185360 22.197800 24.010900
N 1.071330 22.318900 22.753100
N 3.367380 21.850300 22.382400
N 3.651050 20.562100 24.026900
N 3.278650 22.269100 23.445900
N 3.503040 21.245200 23.152200
N 2.805510 21.493500 23.965900
N 5.495490 21.374100 22.886100
N 5.184810 22.160800 23.431400
N 5.400040 21.088200 23.804900
N 4.125450 18.327900 25.267700
N 4.361210 18.026800 24.205400
N 5.277880 18.248100 24.551700
N 5.140050 18.275600 25.568700
N 3.771680 18.891000 24.566900
N 3.436800 19.881300 24.779800
N 3.887600 19.376800 25.492200
N 3.812610 20.156200 25.953800
N 5.686380 19.947900 25.230400
N 5.665460 20.480100 24.444900
N 5.872070 18.947600 25.668400
N 1.932850 20.896500 25.260100
N 3.561600 22.247000 25.261600
N 2.803380 20.639400 24.427800
N 3.739140 20.716400 25.083500
N 3.589740 21.482200 24.462700
N 2.921600 21.545900 25.141000
N 3.716190 21.269200 25.901700
N 2.352900 21.350300 26.017600
N 5.641830 20.955800 25.538800
N 5.396840 22.039100 25.544700
N 5.439630 21.489300 24.743000
N 3.849270 18.534000 26.850000
N 3.367980 19.550700 26.509100
N 3.634110 20.164700 27.465400
N 5.871050 20.198200 26.290500
N 4.567000 20.402600 27.624300
N 4.378980 18.811100 26.074600
N 5.324480 18.995800 26.498600
N 5.271980 19.860600 26.920000
N 4.199300 19.776900 26.880200
N 1.069650 20.985600 27.032800
N 1.573720 21.804500 27.080600
N 1.842680 20.701900 26.489300
N 3.587100 22.074900 26.358300
N 5.826860 21.426000 26.471700
N 5.291400 22.082600 27.102100
N 5.538800 20.865000 27.195400
N 4.739730 21.344500 27.273500
N 5.254760 19.472600 29.045300
N 5.317410 20.328000 29.486500
N 4.089650 20.708100 28.504900
N 3.031550 22.238100 29.059400
N 3.914890 22.122700 29.356100
N 5.076860 20.615000 28.469000
N 3.592320 21.301200 29.726000
N 3.712120 22.277300 30.468700
N 2.928120 21.840600 30.289900
N 4.684570 22.355500 30.649500
N 4.758220 21.492800 30.314000
N 5.610610 21.081400 30.037100
N 1.242330 25.669900 1.988280
N 0.582476 26.591200 0.544348
N 0.731799 26.430800 1.510730
N 1.986510 26.864600 1.413440
N 1.309160 27.333700 0.914889
N 1.297300 25.525200 2.927130
N 0.611997 24.827100 2.636700
N 0.996115 26.520400 2.687150
N 1.763840 27.045200 2.301900
N 1.760380 27.128600 3.781240
N 2.230120 27.664200 3.131480
N 2.187970 27.599000 4.494010
N 3.274810 26.857900 5.571080
N 2.362320 27.419600 5.629830
N 3.664350 27.649900 5.222440
N 1.196360 24.559300 7.090910
N 1.516800 27.458600 6.058600
N 1.483030 27.285000 7.303940
N 0.538110 27.063500 7.489690
N 0.747384 27.764900 6.542560
N 3.968850 26.506900 7.569930
N 2.376300 26.857100 7.321950
N 4.068880 27.244600 6.067470
N 2.569130 26.720000 6.285520
N 4.145940 27.298900 7.040960
N 1.038010 23.165500 7.872150
N 1.250850 23.405100 8.794480
N 0.836556 24.229500 7.949390
N 2.044890 26.284300 7.979930
N 2.176890 27.673900 7.904150
N 1.897640 27.685200 8.854590
N 0.962853 26.987400 9.589160
N 3.900160 27.708800 8.972650
N 3.217430 27.534100 9.569650
N 4.957580 27.660600 9.411540
N 4.323290 26.957100 8.369310
N 4.200780 26.795700 9.259870
N 1.060630 23.867000 9.605780
N 0.999600 22.703300 10.740300
N 0.979378 23.638700 10.488500
N 4.193060 24.877000 10.997300
N 5.085410 25.055500 10.796000
N 1.494400 27.472500 10.294700
N 2.440120 27.698000 10.441700
N 3.428470 26.479900 9.731280
N 2.833330 26.107400 10.316600
N 3.349820 27.313800 10.792300
N 3.991100 27.415400 10.051500
N 5.150320 26.988800 10.152000
N 5.403610 27.704600 10.880400
N 1.402530 23.212800 11.678800
N 1.427780 23.221100 12.612300
N 2.273020 22.856700 12.565900
N 0.503047 23.623400 11.441400
N 3.073260 22.503700 12.153600
N 5.183980 23.936700 13.101200
N 4.280620 23.528900 12.871600
N 4.818100 24.975000 11.759200
N 5.914850 25.532100 11.742800
N 5.853100 24.613500 11.898100
N 5.378120 25.137800 12.722700
N 4.300750 24.481900 12.854700
N 5.917710 25.969000 12.616300
N 4.386920 25.774400 11.456300
N 4.976640 25.999300 12.081600
N 4.045660 27.843900 11.529400
N 2.964660 27.328400 11.667500
N 5.478010 26.790300 11.719000
N 5.362490 27.454000 12.837100
N 5.074950 26.590800 13.038900
N 3.330100 24.036600 13.875100
N 3.761510 23.285200 14.321300
N 4.809140 22.746900 13.268000
N 5.088520 23.660400 14.310600
N 5.911180 23.498400 13.831700
N 4.091160 25.278800 14.490800
N 4.257850 24.211700 13.947500
N 5.441090 25.612300 13.515700
N 4.966450 24.816400 13.668800
N 5.225240 25.373100 14.613900
N 4.790060 24.594400 14.947900
N 3.630180 26.101300 14.397400
N 2.636210 26.967500 13.597700
N 2.757070 26.545000 14.424000
N 4.714190 26.153900 14.170900
N 5.090880 27.017900 13.875300
N 5.679170 26.349900 14.533800
N 4.735860 26.837100 14.852700
N 3.060520 22.729200 16.632600
N 2.641840 23.355200 16.005800
N 3.429210 23.352500 15.371300
N 3.883070 24.007800 15.984500
N 5.546220 23.777500 15.120800
N 5.194680 23.983600 15.977700
N 4.450080 23.278500 16.225200
N 5.530000 22.744000 16.184500
N 5.172780 23.200000 16.894200
N 4.523430 25.858500 16.174400
N 4.627230 24.223800 16.671600
N 5.587950 24.878400 16.490600
N 4.306000 25.796900 15.187800
N 4.911530 24.897100 15.852600
N 5.292310 25.923100 15.359400
N 2.294360 26.359800 16.577500
N 3.664630 27.060900 16.123000
N 3.625560 26.145400 15.998800
N 2.687440 27.008100 16.000800
N 5.379760 27.829700 15.378500
N 5.379990 26.399600 16.349500
N 4.654500 26.766100 15.857200
N 5.660260 26.794900 15.408000
N 3.095380 23.238000 17.870800
N 2.515400 22.487900 17.901700
N 4.009590 24.772800 18.223200
N 4.731580 24.597600 17.606100
N 5.744140 25.088200 17.768100
N 5.833360 25.898700 18.335400
N 5.943560 27.041100 17.311700
N 3.800040 25.583600 18.748500
N 3.641780 24.956900 19.460300
N 1.087180 24.022600 21.991000
N 0.575153 23.218500 21.798500
N 4.025320 22.437900 21.814300
N 2.144440 24.400300 22.263000
N 1.266870 24.820200 21.427900
N 2.180800 25.016100 21.520400
N 1.514570 25.578000 22.113900
N 2.476400 25.800300 22.242100
N 4.468240 27.507000 21.903500
N 1.982300 23.508200 23.146600
N 1.614400 23.026200 22.391700
N 2.013890 22.431800 23.505300
N 2.917950 23.137500 23.561100
N 2.768530 23.933000 22.812400
N 4.099360 23.355200 22.569500
N 3.265670 22.902400 22.606500
N 2.380600 22.415500 22.641700
N 4.947440 23.592100 23.945400
N 5.023240 23.074300 22.800500
N 5.792870 23.012700 23.628800
N 1.235960 24.353300 23.000500
N 1.069340 25.075400 23.647300
N 0.624130 25.016900 22.651800
N 0.612400 25.918100 23.964800
N 1.261940 25.842900 22.982400
N 5.463060 24.324300 23.718900
N 3.554080 26.713600 23.296300
N 3.929970 26.819700 22.408300
N 2.831330 26.565900 22.687200
N 5.415810 27.552400 23.225000
N 4.555640 27.717600 22.839600
N 0.904497 22.758000 25.006800
N 1.274570 23.098900 25.989600
N 0.502576 23.537800 25.359700
N 1.775720 22.426300 24.810500
N 2.317140 23.556800 24.202100
N 2.575770 23.998300 25.077000
N 3.436020 23.245400 25.320100
N 2.452380 23.031700 25.072700
N 3.378310 23.566200 24.440700
N 3.427980 22.544800 24.329800
N 4.143020 24.076400 24.329500
N 5.326680 23.038000 25.300900
N 4.268290 23.635400 25.652900
N 5.780260 23.458200 24.525200
N 5.256440 22.576000 24.295000
N 1.783010 24.583500 24.823900
N 1.176560 25.393200 24.523700
N 1.154170 25.972600 25.443300
N 1.694450 25.160400 25.506800
N 2.434700 25.266500 24.581000
N 2.916530 24.920800 25.310900
N 3.226430 25.811000 25.117100
N 2.393700 26.016300 25.614800
N 5.814000 25.218800 24.333300
N 5.382290 24.416600 24.655800
N 0.640703 26.531400 24.851700
N 1.620310 22.760000 26.921200
N 2.283960 23.696200 26.058100
N 0.490490 23.416300 26.414100
N 1.743590 23.844600 26.842500
N 3.741960 22.976500 26.410500
N 3.768450 23.936600 27.048800
N 3.281850 23.656200 27.834400
N 5.420510 22.709700 26.386000
N 4.435020 22.567300 26.905600
N 4.878490 23.363300 26.738100
N 2.250920 24.588300 26.214200
N 0.920022 24.305500 26.849700
N 1.826180 24.834200 26.994400
N 4.268760 24.358200 26.427400
N 2.286130 23.723100 29.650900
N 1.184280 23.826700 29.196000
N 3.564420 23.039500 28.733100
N 2.665640 24.110500 28.868500
N 2.805160 22.877300 28.141200
N 1.783870 24.529400 29.437200
N 2.887530 24.699100 29.603400
N 2.006920 25.411600 30.118000
N 2.302310 24.497000 30.342800
N 3.398650 27.602500 30.762000
N 2.471340 26.217400 30.269300
N 2.776480 26.533900 31.101400
N 3.352360 27.150800 31.568800
N 1.210180 28.877900 1.527340
N 0.600646 29.420500 0.686781
N 0.773105 28.253900 0.884100
N 1.802040 28.451700 0.766752
N 2.151850 28.792400 1.579600
N 1.348680 27.856700 1.685950
N 1.554090 29.336500 2.264460
N 2.809830 28.921900 2.246310
N 1.205940 29.879500 1.548050
N 1.237510 31.018600 1.694880
N 0.792823 30.483500 0.854426
N 2.194740 30.824300 1.725700
N 3.207980 30.115400 1.171560
N 2.502470 29.936400 1.812860
N 2.782060 30.930800 0.756247
N 0.810994 31.609200 1.071590
N 1.385740 32.185800 1.778720
N 2.078200 28.950400 3.150680
N 1.731090 28.237100 2.521230
N 3.658540 29.203200 2.525220
N 2.549210 28.356900 3.745630
N 2.058420 29.885300 3.059660
N 1.540820 30.503000 2.528510
N 2.124190 30.869600 3.247610
N 3.134200 30.311400 3.795530
N 0.899235 32.108600 3.202190
N 0.473894 32.934100 3.460270
N 1.867620 31.774100 3.332050
N 1.582030 31.567300 2.449880
N 1.918630 28.510200 5.920170
N 1.531130 28.045500 5.173370
N 0.720218 28.568800 4.457780
N 1.263550 28.958900 5.106380
N 2.095500 28.624600 4.626140
N 2.650950 29.393100 4.225560
N 3.215430 28.179600 4.390620
N 2.431770 29.368400 5.404820
N 2.795290 28.502000 5.309450
N 3.419360 29.187200 4.763820
N 4.722420 28.059700 5.807960
N 4.956480 28.648200 5.126850
N 4.131600 28.348500 4.640900
N 1.487720 31.381500 4.200240
N 0.780007 29.751900 4.602800
N 1.595670 31.141600 5.908650
N 0.483574 30.927900 4.189610
N 1.804330 29.808000 4.837480
N 0.831629 29.953100 5.612440
N 1.230920 30.678000 4.788890
N 2.094400 30.315100 5.604930
N 2.635600 31.416900 4.145740
N 3.762040 30.008800 4.441510
N 2.339940 30.497300 4.267990
N 3.428440 31.100800 4.639160
N 2.536830 31.205000 5.344610
N 4.357940 31.367900 4.835270
N 5.206990 29.768300 5.497490
N 4.966540 30.302600 4.792580
N 5.759870 30.247700 4.206990
N 1.925460 31.920500 4.838270
N 1.845300 32.069400 5.833940
N 2.501600 32.918000 5.606210
N 2.376530 33.142700 4.679120
N 4.014750 32.209500 5.194320
N 2.869030 32.037300 5.098020
N 5.492430 32.896300 4.581400
N 1.047210 28.759700 6.231670
N 0.806032 29.592500 6.593110
N 2.050020 29.504900 7.766170
N 1.694340 29.594700 5.960790
N 2.915210 29.319400 7.286760
N 3.853990 29.140100 6.642410
N 3.434790 28.452500 7.124900
N 4.112950 28.151900 6.560550
N 2.421910 28.528100 7.649900
N 3.893890 29.460100 7.621310
N 4.813220 29.168200 6.097860
N 4.544470 28.619200 7.655460
N 1.111950 30.438900 6.340230
N 2.337720 31.214900 7.650290
N 3.517040 30.004400 6.955410
N 2.678770 30.203000 7.382610
N 4.052760 30.880000 6.473570
N 3.133620 31.074500 6.981570
N 4.436320 30.030200 6.263920
N 4.428220 30.436700 7.618420
N 0.868254 31.515600 6.356150
N 1.364210 32.597300 6.529040
N 0.623826 31.977700 7.116160
N 3.730910 31.763700 6.796890
N 2.768010 31.967300 7.315690
N 2.316180 32.698800 6.572700
N 3.736760 32.189300 7.668660
N 3.278460 32.711100 6.899870
N 3.563560 32.557200 6.004630
N 5.243110 33.262000 6.363820
N 0.530672 28.187900 7.850510
N 1.398320 28.551700 8.431460
N 2.193600 28.947600 8.690130
N 0.561402 28.881000 8.705740
N 1.335520 28.230800 9.487230
N 2.792030 28.075000 8.666250
N 3.082990 28.937000 8.249330
N 3.404430 28.678100 9.231030
N 3.887220 28.011600 8.060140
N 2.733710 29.501500 9.455390
N 2.580030 28.412200 9.531410
N 4.202640 28.919500 8.731960
N 5.921100 28.254100 8.057700
N 4.813640 28.132700 8.631540
N 5.091400 29.139000 8.209990
N 1.309930 29.699300 8.370410
N 1.084720 30.907200 8.528600
N 1.798350 30.413600 7.997920
N 1.809900 30.517100 9.054300
N 1.926920 31.461000 8.577160
N 3.514760 29.757600 9.016820
N 2.748750 30.882300 8.469550
N 3.436940 30.142000 7.971790
N 3.766140 30.646400 8.923730
N 2.832700 30.455000 9.405290
N 3.667470 31.268800 7.968000
N 4.591660 30.905200 8.432500
N 4.485380 29.917400 8.565650
N 5.239060 30.178800 8.045530
N 5.404200 31.153000 7.981970
N 2.063640 32.355000 7.791310
N 1.608430 33.192800 7.835630
N 1.362110 31.588700 9.322230
N 1.957770 32.587300 8.834800
N 1.014010 32.493300 8.884600
N 3.846910 31.630900 8.819990
N 3.018270 31.854400 8.336800
N 3.310880 32.610400 9.050870
N 3.061890 31.524700 9.326600
N 4.199170 32.631400 8.650380
N 5.769360 31.837600 8.572850
N 5.199140 32.794600 8.649990
N 4.597070 33.121800 9.513550
N 1.597870 28.394200 10.488800
N 1.555230 28.814100 11.298400
N 1.816110 29.031000 9.683960
N 3.359510 29.468300 11.111500
N 3.271900 28.278900 11.244700
N 3.996430 28.843600 10.925400
N 4.493060 28.007500 10.705900
N 5.652520 28.625700 11.282500
N 4.908970 29.035500 10.350800
N 5.328730 29.583700 10.939000
N 5.383450 28.174700 10.007800
N 5.925140 29.165200 9.939290
N 0.920431 31.054800 10.982300
N 1.042940 29.904900 10.982600
N 1.926270 29.973800 9.900030
N 1.190570 30.525900 10.063000
N 2.156830 31.003900 9.772190
N 1.433650 31.477500 10.305800
N 3.010860 31.166500 11.270600
N 3.696150 30.567800 10.962500
N 4.355470 29.758900 10.659700
N 4.594800 30.640300 10.492100
N 5.332490 31.040800 10.103600
N 5.657780 30.467700 11.096300
N 4.644580 31.273000 11.241400
N 1.796190 32.522700 10.741900
N 1.590080 31.712500 11.279700
N 0.811680 32.360500 9.830340
N 2.279730 32.086500 9.624200
N 3.830670 31.532900 10.797400
N 2.778010 33.056300 9.722920
N 3.395890 32.256200 11.299200
N 3.669320 33.123100 9.986600
N 4.730940 31.720100 10.390400
N 5.168120 32.531000 9.935540
N 5.667720 31.520000 11.073100
N 4.225490 32.587100 10.639400
N 5.872750 32.283100 10.548900
N 0.885899 29.445700 11.907100
N 0.722174 28.551300 12.212400
N 1.639810 28.459900 12.148600
N 1.836650 29.572500 11.995800
N 2.250520 27.914600 11.419700
N 2.877620 29.459800 12.437300
N 2.620400 28.660700 12.899200
N 2.606230 29.126500 11.622400
N 3.636040 28.869200 11.894100
N 3.278030 28.198800 12.379100
N 4.751360 28.810000 11.489900
N 2.129660 31.183800 11.801000
N 1.481660 30.430600 11.717700
N 2.785680 31.054800 12.461500
N 3.995790 29.869200 11.835600
N 3.956710 30.825400 11.931200
N 3.412160 30.361900 12.537400
N 2.784690 30.283700 11.515800
N 5.528810 29.700000 12.175800
N 4.742700 30.265500 11.426800
N 2.273140 33.021200 12.632500
N 2.180260 32.958400 11.714100
N 1.406130 32.784600 12.834800
N 2.565230 32.038500 11.560200
N 4.006520 31.850600 11.905100
N 3.327050 33.224000 11.693500
N 3.875970 32.962700 12.436100
N 4.307290 32.709600 11.570000
N 4.787360 32.740300 12.715700
N 1.076130 28.727900 14.140600
N 1.900890 28.250100 14.408200
N 1.429900 29.329300 14.809900
N 2.393340 27.914600 13.585400
N 5.763550 28.106100 13.427700
N 5.453220 27.861500 14.421300
N 5.540210 28.747500 14.061900
N 1.723640 30.118200 14.272600
N 2.707400 29.958900 14.399100
N 5.437150 30.167900 14.647600
N 1.667870 32.799500 14.982900
N 1.170290 33.017600 14.127600
N 2.016640 32.957500 13.712100
N 2.640620 32.644200 14.837600
N 3.734370 32.567700 14.438400
N 4.677600 32.468700 14.422000
N 5.167240 32.058000 13.707100
N 5.447160 28.279700 16.418400
N 2.109870 31.328000 16.407400
N 2.345120 30.113000 15.265400
N 3.081350 31.423000 16.159900
N 3.071120 30.673100 15.572000
N 1.653500 32.792600 16.677500
N 2.103710 32.605700 15.880000
N 2.146680 31.709300 15.494300
N 3.079560 32.436300 15.665600
N 4.036650 32.314400 15.319800
N 3.840050 32.449000 16.227500
N 5.755270 28.119400 17.322200
N 1.354910 33.184500 17.490400
N 5.337130 31.612800 19.214400
N 5.469790 32.515600 19.575000
N 0.767926 29.191400 24.011900
N 5.735900 32.516400 22.458200
N 0.701608 28.675700 24.826300
N 1.122260 29.295700 31.447500
N 3.185350 28.395300 31.261100
N 2.546280 28.543700 30.535900
N 2.466210 29.390200 31.035000
N 5.764730 29.603800 31.479700
N 4.893120 29.171800 30.958300
N 5.178590 30.053400 30.847700
N 0.552791 28.750500 32.844900
N 1.120600 28.520800 32.088700
N 1.488950 29.181800 33.116800
N 3.964790 29.064200 31.990300
N 3.147910 29.277100 31.658400
N 0.701190 31.146200 32.989400
N 0.862068 29.711000 32.339100
N 4.556920 29.812700 31.566200
N 4.133600 29.945100 32.460200
N 2.156210 32.281700 33.126200
N 1.050200 32.034200 33.067700
N 1.728190 32.428000 32.234300
N 2.953680 31.751400 33.205200
N 9.542760 2.724360 0.839357
N 10.429400 3.985750 2.205090
N 9.237470 4.866200 1.390920
N 9.576940 4.217890 0.787038
N 9.673900 4.683720 2.235050
N 11.158900 4.794600 1.764420
N 10.794700 4.739980 2.633980
N 6.603380 0.596803 5.404550
N 9.569830 1.565800 4.950350
N 10.071100 0.851967 5.312730
N 9.958620 2.413640 5.203690
N 7.238010 0.644975 7.087490
N 6.821930 1.538060 7.015870
N 6.044960 0.861527 6.182330
N 6.816290 3.820700 12.746800
N 6.444820 3.314920 12.051100
N 6.401880 2.677930 12.758400
N 7.562310 4.220760 12.253600
N 8.985980 0.986378 15.913500
N 11.307200 1.485080 15.446400
N 10.446500 1.325640 15.086000
N 9.619340 1.558460 15.484000
N 10.638200 1.393690 16.333400
N 10.162000 0.602086 16.016300
N 9.230530 2.847210 16.864000
N 11.070400 2.975340 16.228500
N 6.667140 4.739460 16.272700
N 9.001650 1.027560 16.919700
N 9.484900 1.257180 17.805400
N 8.070840 2.098650 18.203300
N 8.867030 1.435270 18.548800
N 8.910810 2.086380 17.297000
N 9.487930 0.601524 18.712000
N 10.964600 1.249220 17.304900
N 10.805300 2.146700 16.996800
N 9.940130 1.867930 17.134500
N 10.097300 0.834728 17.150600
N 7.186910 4.056860 17.619000
N 9.183300 2.306970 18.383400
N 10.371400 3.123550 17.121100
N 9.797020 2.659320 17.736000
N 11.315800 4.068330 18.486900
N 10.172400 3.419580 18.279200
N 10.899000 3.710420 17.653300
N 10.125500 2.590560 18.674900
N 6.384090 4.275940 17.066000
N 7.708640 4.866460 17.537200
N 7.887370 5.743400 17.187900
N 8.588280 5.354780 17.743400
N 9.358740 4.771620 17.517700
N 10.079800 4.492740 18.147300
N 10.455600 5.404280 18.172700
N 6.582550 1.792950 20.168700
N 7.392850 2.152840 19.793100
N 7.432530 1.188180 20.286300
N 6.474630 1.219020 19.455100
N 8.245210 1.676150 20.401000
N 9.299640 1.057770 19.491000
N 11.208700 2.247690 20.064300
N 9.830180 1.557470 18.831900
N 10.129900 1.855630 19.710200
N 10.972200 2.200420 18.982900
N 10.966700 1.356740 20.238100
N 10.776300 1.210720 19.157500
N 9.864510 0.587621 20.173800
N 7.404250 2.328680 18.868700
N 6.789520 3.904430 19.994700
N 7.544530 3.283220 19.619700
N 6.756080 2.718620 20.488300
N 7.770450 3.893490 20.303400
N 9.433350 2.398860 19.516700
N 9.432560 3.279890 18.914600
N 8.400510 2.557360 20.128100
N 8.508870 2.887430 19.069000
N 8.478260 3.652970 19.650600
N 9.279090 3.187870 20.068400
N 9.422600 4.038940 19.678700
N 11.345000 3.309910 19.713200
N 11.153600 3.160260 18.856000
N 10.286700 3.677750 20.301200
N 10.398900 2.926550 19.721000
N 7.415660 4.146010 19.323700
N 7.011860 5.511250 19.297100
N 6.601650 4.824660 19.776300
N 7.694040 4.862740 19.867800
N 7.144010 5.698210 20.460700
N 8.559140 5.653830 18.794100
N 7.778420 5.058160 18.749100
N 8.017000 5.766620 19.782100
N 8.459910 4.641950 19.330600
N 8.945110 5.347700 19.959500
N 9.478830 4.765260 20.442400
N 9.907070 5.674050 20.394600
N 10.214800 4.696610 19.860500
N 10.204500 5.780310 19.057300
N 7.379300 1.122390 21.445800
N 6.465890 1.633450 21.980300
N 6.272130 2.026290 21.172700
N 9.220520 2.027840 20.594800
N 8.999750 1.050760 20.948400
N 8.209780 1.470830 21.470700
N 9.027300 1.880680 21.539800
N 9.098470 1.036450 22.018500
N 8.124410 0.759891 20.757000
N 8.095740 0.813806 22.339500
N 9.935260 1.459310 20.808700
N 10.713800 1.845410 21.150700
N 10.808700 1.824410 22.131500
N 6.270660 2.607540 22.292600
N 7.424850 3.999830 22.118800
N 7.634540 2.995890 20.584500
N 6.545300 3.664810 22.083800
N 8.529640 3.441430 20.664300
N 9.395660 3.841300 20.817200
N 11.016200 2.955960 20.731600
N 10.956600 3.800610 21.338700
N 10.931700 2.763290 21.687900
N 6.228830 5.496810 20.949300
N 7.249210 5.674720 21.345100
N 7.656490 4.985700 21.823000
N 6.094810 4.599160 20.821100
N 5.959530 5.034770 22.362900
N 9.266260 4.972770 22.279100
N 9.355710 5.867080 22.016100
N 8.528240 5.523110 21.892500
N 8.427880 4.575730 22.223500
N 10.792200 5.236900 20.750900
N 10.230200 4.333780 20.948200
N 10.984300 5.480970 21.678500
N 7.764950 1.545580 23.225000
N 6.967880 2.208360 22.826000
N 6.909400 1.640530 23.733600
N 5.976780 1.726560 22.841900
N 7.236450 1.151240 22.532500
N 6.310910 0.859428 23.001100
N 9.558210 1.386880 23.637100
N 8.825990 2.090840 23.479700
N 8.686800 1.070740 23.051600
N 10.393400 0.499730 23.353600
N 11.078600 1.177210 23.518400
N 9.697400 0.936490 22.764000
N 10.922800 0.900858 22.453200
N 10.504500 1.929120 24.086900
N 7.248820 3.027320 23.589200
N 7.248570 3.107870 22.486400
N 6.398770 2.633400 23.683900
N 6.546500 3.772590 24.047900
N 6.219900 3.274980 23.064400
N 8.109460 3.447750 23.632400
N 7.915470 2.602620 22.929100
N 8.003220 2.334830 23.822000
N 8.982430 2.954520 23.020600
N 9.086030 3.936720 23.807700
N 9.025670 4.005320 22.683900
N 8.175140 3.571510 22.583400
N 9.778510 2.424980 23.524400
N 10.892900 2.503260 23.450200
N 9.780680 3.536960 23.088400
N 10.688600 3.418700 23.455200
N 10.010800 3.122130 24.089900
N 11.328200 2.893220 22.590900
N 6.608380 4.137420 22.919000
N 7.452200 4.695680 22.879000
N 7.402460 4.154860 23.792100
N 6.855320 5.357010 22.445500
N 9.230250 5.922670 23.006100
N 8.311080 4.407990 23.227700
N 9.154360 4.876700 23.417400
N 8.489900 5.389910 22.936700
N 8.540460 4.611090 24.166700
N 10.966700 4.447920 22.934800
N 9.883990 4.390750 22.776100
N 10.213500 4.269080 23.769400
N 10.238200 5.165520 23.387500
N 10.150900 5.462720 22.530500
N 11.130500 5.464100 22.711600
N 7.530550 1.650660 24.426900
N 8.232500 0.988164 24.239700
N 8.704110 1.795740 24.495500
N 9.599090 2.150760 24.452100
N 7.664660 3.525030 24.415400
N 9.338790 5.406310 24.218700
N 11.293500 4.466210 24.578000
N 9.635880 4.439270 24.486800
N 8.271390 1.937710 32.563500
N 9.034900 1.350010 32.538600
N 9.837030 0.838209 32.550500
N 9.362630 3.448880 33.117800
N 8.731270 2.423770 33.239600
N 6.763930 7.137360 18.141000
N 6.484530 7.254300 17.271000
N 6.476550 6.269840 18.957700
N 7.707850 6.454550 20.390200
N 9.305130 6.065030 19.277700
N 8.771140 6.284430 20.270300
N 10.199200 6.508320 19.971800
N 8.499350 7.038190 20.761300
N 9.073580 6.774760 21.688700
N 8.289200 6.246140 21.280900
N 9.665840 6.400780 21.032900
N 10.338400 6.232460 21.758300
N 10.693800 6.181810 20.772200
N 11.258500 6.591210 21.764400