475
Atoms. Timestep: 0
H 0.732261 4.604530 2.187110
H 0.763945 4.592650 2.115320
H 1.246130 4.953920 3.015210
H 1.417200 5.620390 3.701930
H 1.383100 5.672220 3.748130
H 1.280560 4.922100 2.949860
H 1.106460 6.566960 4.189480
H 1.137270 6.500400 4.170010
H 30.950700 6.096800 1.114150
H 30.935500 6.094450 1.130510
H 31.551600 5.263010 1.098980
H 31.572200 5.270860 1.055470
H 32.368700 4.720300 1.421920
H 32.342100 4.717660 1.485720
H 32.272300 5.524190 2.072860
H 32.676100 5.445620 2.378700
H 31.898800 5.784730 1.848780
H 32.905700 5.642310 2.837600
H 33.002800 5.959490 3.172000
H 30.670700 6.976810 1.582230
H 30.658800 6.989190 1.571860
H 30.807400 7.675090 2.334300
H 30.795800 7.707490 2.304780
H 31.568900 6.212580 1.895250
H 31.448100 6.637700 2.112160
H 31.499100 7.019100 2.482390
H 32.225400 6.298600 2.642080
H 32.202400 6.330710 2.660000
H 32.552100 6.812470 3.435380
H 32.132600 7.137220 3.247130
H 31.774700 7.151570 2.905460
H 32.835900 6.448830 3.424740
H 32.853300 7.398400 4.221010
H 32.878700 7.326340 4.228690
H 32.082100 7.876890 3.862230
H 32.062700 7.943750 3.834270
H 31.309700 8.056880 3.132880
H 31.324000 8.004550 3.168840
H 27.490900 2.018790 2.903840
H 26.760300 1.160710 3.310890
H 26.672100 2.209040 3.445580
H 26.668600 1.183190 3.305930
H 26.761800 2.186250 3.452830
H 27.571400 2.000870 2.895860
H 27.197200 3.112450 3.296290
H 27.114400 3.132940 3.294910
H 27.193100 32.673500 2.908510
H 27.104800 32.693200 2.913380
H 28.381100 1.815480 2.338890
H 28.309700 1.828540 2.362100
H 28.526000 0.889145 2.096010
H 28.596700 0.877662 2.066740
H 29.190700 1.630100 1.781930
H 29.128400 1.638280 1.820370
H 30.000300 1.444710 1.224960
H 29.947200 1.448030 1.278630
H 29.950700 2.473880 1.418280
H 30.001800 2.470250 1.366890
H 28.755400 3.778280 2.351080
H 28.912100 2.577670 2.086460
H 28.975000 2.567910 2.054080
H 28.817900 3.767220 2.324280
H 29.569000 3.320350 1.769270
H 29.514500 3.326810 1.810820
H 27.707300 1.079400 2.637740
H 27.787100 1.063050 2.623700
H 28.165400 2.753300 2.611050
H 28.093300 2.767930 2.628200
H 27.949700 3.691120 2.883210
H 27.876900 3.707320 2.894290
H 27.863900 32.241700 2.373120
H 27.944200 32.226700 2.353500
H 28.742400 32.312700 1.829910
H 28.812400 32.302800 1.794580
H 29.505000 32.887000 1.429300
H 29.564900 32.881400 1.381500
H 5.637130 9.728700 20.300100
H 5.646080 9.718230 20.304500
H 5.803690 10.515300 19.662900
H 5.794210 10.521600 19.653200
H 5.836090 9.238690 21.202200
H 5.828730 9.254390 21.200200
H 10.732800 3.121760 18.190100
H 10.727100 3.124000 18.177600
H 11.216500 3.491280 17.352600
H 11.212400 3.494710 17.341500
H 10.848800 4.098950 18.368300
H 10.847800 4.099860 18.359800
H 11.414700 5.657970 17.868900
H 11.298800 4.680790 17.690800
H 11.300400 4.682380 17.684600
H 11.421100 5.658250 17.866900
H 10.968500 5.075720 18.542000
H 10.964700 5.076130 18.546500
H 10.311200 3.275920 19.123100
H 10.306500 3.276250 19.111300
H 10.064800 3.912430 19.901500
H 10.063200 3.910670 19.892400
H 11.089200 6.051580 18.724300
H 11.080700 6.053310 18.724600
H 10.059500 4.860760 20.316900
H 10.514800 4.494280 19.224000
H 10.515900 4.493200 19.217200
H 10.630700 5.471460 19.402200
H 10.636500 5.469060 19.399500
H 10.304600 5.862390 20.256900
H 10.062500 4.857270 20.311800
H 10.296700 5.866800 20.257900
H 9.073690 1.506340 25.077200
H 9.075710 1.496230 25.097600
H 8.166090 1.539370 25.574200
H 8.177250 1.532790 25.610700
H 8.558060 2.454110 25.689600
H 8.548260 2.458330 25.671900
H 9.937500 1.963200 24.764200
H 9.942910 1.974640 24.765600
H 9.438190 2.669320 25.266400
H 9.436670 2.675960 25.267600
H 8.930430 3.377290 25.769500
H 8.938880 3.375440 25.768500
H 9.319690 4.296760 25.847400
H 9.312600 4.296250 25.867200
H 10.540800 2.818770 24.723100
H 10.531700 2.808580 24.699900
H 10.707300 3.812560 24.961000
H 10.699100 3.805850 24.922000
H 9.819000 3.590640 25.345300
H 9.818840 3.594920 25.365200
H 10.397600 4.689720 25.415500
H 10.394900 4.687790 25.370900
H 7.482870 2.063090 26.166100
H 7.463290 2.064860 26.123600
H 7.153610 2.942020 26.578100
H 7.178620 2.945030 26.615000
H 7.320020 3.935810 26.815900
H 7.346040 3.942290 26.837100
H 8.439560 4.081550 26.270700
H 8.058750 3.160230 26.191800
H 8.042020 3.159660 26.173800
H 8.424190 4.078620 26.271500
H 9.700510 5.218080 25.926300
H 9.694770 5.215210 25.964800
H 7.917950 4.779940 26.773400
H 7.940250 4.787670 26.772800
H 8.787170 5.248240 26.461900
H 8.802050 5.254640 26.439500
H 8.518160 9.845740 18.656500
H 8.940680 10.780000 18.513300
H 11.209800 7.027440 18.906500
H 10.713000 6.660980 19.740300
H 10.724500 6.656740 19.742600
H 11.196700 7.030490 18.902800
H 8.383770 9.002650 19.242100
H 8.988640 9.594350 19.775100
H 8.573530 8.476640 20.113500
H 6.257880 11.420700 19.432900
H 6.373550 10.709300 20.461400
H 6.598150 11.169300 20.339000
H 6.266690 11.416300 19.449200
H 9.267100 10.483000 19.410800
H 9.593520 10.186000 20.308200
H 9.871970 11.074700 19.943800
H 6.322790 9.205180 22.115400
H 6.317670 9.225780 22.112400
H 9.648890 8.816950 21.765200
H 9.036600 8.408670 21.036900
H 9.315060 9.297360 20.672500
H 10.246300 9.592070 22.103000
H 6.943400 10.903300 21.260000
H 6.389740 10.071000 21.231100
H 6.628040 10.071800 21.678700
H 6.959590 10.265000 22.029700
H 7.513250 11.097300 22.058600
H 6.938410 10.917800 21.245100
H 7.278680 10.666300 22.151300
H 6.287770 10.323200 20.772600
H 10.198400 10.777700 20.841200
H 10.803300 11.369400 21.374200
H 10.668900 10.526300 21.959900
H 9.919930 9.889060 21.205600
H 6.975790 9.626680 22.799300
H 6.972940 9.650550 22.792100
H 7.618950 10.414900 23.057400
H 7.620110 10.390200 23.070900
H 8.083100 11.291300 22.857200
H 8.082620 11.313900 22.837000
H 6.903890 12.185000 19.698100
H 6.911000 12.179900 19.720700
H 7.564000 12.601400 20.404600
H 7.559160 12.609800 20.377900
H 6.927200 11.541600 20.490300
H 9.538140 11.555100 18.851200
H 10.150400 11.963400 19.579400
H 7.497050 11.735600 21.288900
H 7.248790 11.763800 20.811500
H 7.589060 11.512300 21.717600
H 8.240710 12.088300 22.215500
H 8.050710 12.567900 21.317800
H 8.048100 12.581200 21.290000
H 8.239700 12.106900 22.190100
H 10.613500 11.895400 20.502900
H 11.632400 4.289050 16.827200
H 11.632800 4.285460 16.835100
H 11.874400 5.294180 16.772300
H 11.870000 5.291490 16.776000
H 11.618300 6.876340 17.969900
H 11.864700 6.239820 17.191400
H 11.630500 6.875190 17.972800
H 11.873700 6.240770 17.191700
H 15.031600 25.771300 27.396100
H 14.405100 26.100800 26.640600
H 13.843700 26.854400 26.206100
H 14.526500 26.892200 27.239700
H 15.555300 25.954300 28.270300
H 15.101600 26.819000 28.054500
H 15.835800 26.600600 29.028900
H 15.798100 27.537200 29.468500
H 15.223000 27.610400 28.653700
H 14.072900 27.756900 27.023900
H 13.497800 27.830200 26.209000
H 13.460100 28.766800 26.648700
H 13.740600 29.413100 27.407300
H 14.194300 28.548400 27.623000
H 14.890800 29.266600 29.037000
H 14.769400 28.475100 28.437900
H 14.648000 27.683700 27.838800
H 15.452200 28.513000 29.471500
H 14.264300 29.596100 28.281400
H 26.776600 1.232910 28.141800
H 26.791300 1.251560 28.157100
H 27.192700 2.179830 28.096800
H 27.216200 2.192900 28.084900
H 27.480700 31.739900 28.052900
H 26.888100 32.583800 28.145400
H 26.884500 32.566600 28.110600
H 27.487500 31.730900 28.011700
H 30.588600 1.615210 27.542700
H 30.580300 1.647960 27.604600
H 29.996000 2.459120 27.635100
H 27.977300 1.555470 27.964500
H 28.732400 0.925830 27.857600
H 28.376900 1.858290 27.922700
H 28.738400 0.918027 27.844000
H 28.902400 1.904060 27.813800
H 27.754500 1.079370 27.999700
H 29.354800 1.704750 27.780600
H 29.710300 0.772291 27.715600
H 29.663500 1.266620 27.693300
H 29.977300 2.483670 27.703600
H 28.049000 2.792650 27.948200
H 28.021400 2.790750 27.987700
H 29.066500 2.890090 27.783600
H 29.040700 2.901970 27.843800
H 30.688200 32.981700 27.573500
H 30.260500 32.006100 27.603100
H 30.272100 32.034700 27.618500
H 30.685400 32.947400 27.530900
H 29.443400 31.423800 27.727500
H 27.813200 32.932300 27.994700
H 29.087900 32.356300 27.792600
H 28.410300 31.308900 27.904500
H 28.424100 31.312600 27.871500
H 28.110000 32.509800 27.934700
H 28.574300 32.294900 27.874200
H 29.427800 31.406300 27.739800
H 29.499500 32.643500 27.723600
H 4.320530 14.961200 4.513920
H 4.350250 14.984100 4.597710
H 4.991260 14.522900 5.267250
H 4.957360 14.498500 5.186410
H 2.415070 16.838800 5.432870
H 2.445520 16.858200 5.525320
H 3.718390 15.690500 5.396280
H 2.880460 16.332300 4.746710
H 3.337490 16.012300 5.477820
H 2.852740 16.312400 4.656210
H 4.071390 15.336700 5.406670
H 3.577640 15.646400 4.407180
H 3.550190 15.625100 4.319850
H 3.152330 16.296400 5.955350
H 4.425200 15.128800 5.826320
H 5.328920 14.386400 6.236390
H 5.272760 14.611100 7.245450
H 5.229420 14.585600 7.165990
H 4.556140 15.036600 6.228280
H 5.290040 14.361000 6.157130
H 3.822250 15.712200 6.299430
H 3.088350 16.387800 6.370580
H 3.293080 16.340500 6.944450
H 3.573100 16.087700 7.192190
H 3.999890 15.778800 7.374490
H 3.859140 15.734600 6.385390
H 4.307000 15.412100 7.121040
H 4.565950 15.172900 6.815420
H 3.323960 16.463200 8.084940
H 3.368030 16.485200 8.173060
H 4.094310 15.799200 8.279010
H 4.140640 15.822900 8.363590
H 4.837810 15.136900 8.024060
H 4.791750 15.112000 7.942650
H 2.389350 17.082900 6.534380
H 2.354450 17.063400 6.441730
H 2.727020 16.946400 7.503520
H 2.687130 16.925900 7.412450
H 24.441100 14.461600 12.717800
H 24.459500 14.489000 12.698400
H 25.099100 15.155500 12.230700
H 25.076800 15.127100 12.243400
H 25.058600 16.580800 13.214100
H 24.739400 15.618900 13.046100
H 24.755900 15.645100 13.032300
H 25.042900 16.555300 13.222900
H 25.554800 16.084300 12.192700
H 25.531600 16.056100 12.199100
H 23.311600 14.516300 14.367500
H 23.317600 14.539400 14.339600
H 23.807500 14.263500 13.470300
H 23.795100 14.238100 13.495300
H 23.766900 15.688800 14.453700
H 23.761200 15.666300 14.474800
H 24.064700 16.602600 14.651500
H 24.069600 16.624500 14.635500
H 23.121100 15.242900 15.073400
H 24.098600 15.174400 13.672100
H 24.110100 15.199200 13.652100
H 24.402100 16.110800 13.848800
H 24.412800 16.134800 13.833900
H 23.120300 15.221800 15.100700
H 23.272500 16.165500 15.498500
H 23.270800 16.185300 15.475100
H 25.704400 17.026700 12.594400
H 25.683800 16.999700 12.596900
H 25.508000 17.730100 13.328200
H 25.492500 17.705200 13.330100
H 24.715400 17.070400 14.015700
H 25.009000 17.983400 14.202400
H 25.018100 18.006100 14.197500
H 24.363000 17.759900 14.979800
H 24.366000 17.780600 14.969400
H 24.705500 17.047100 14.025600
H 23.726400 17.114100 15.437100
H 23.727300 17.094500 15.454300
H 28.842400 18.455900 0.979206
H 30.038300 18.456100 1.304500
H 31.018200 18.381900 1.489770
H 31.581900 17.752200 0.955131
H 32.237000 18.198800 1.620990
H 29.474600 19.085800 1.839140
H 28.494700 19.160000 1.653880
H 28.672200 19.824400 2.427830
H 30.454600 19.011600 2.024410
H 31.434500 18.937400 2.209680
H 32.414400 18.863200 2.394940
H 29.327200 20.271000 3.093690
H 29.890900 19.641300 2.559050
H 30.870800 19.567100 2.744320
H 30.284300 20.380100 3.473040
H 31.287100 20.122500 3.464220
H 32.066700 19.567300 3.069620
H 29.622100 17.900600 32.947500
H 30.624800 17.643100 32.938700
H 14.645700 8.685470 1.315120
H 13.891700 9.326490 1.010900
H 15.651500 8.445920 1.369140
H 16.639600 8.672030 1.158470
H 15.115600 9.434630 0.848225
H 16.112600 9.427910 0.769899
H 13.591700 10.197200 32.900900
H 13.825800 11.064400 32.386000
H 15.058600 10.939700 32.355700
H 14.588600 10.190500 32.822600
H 16.582500 10.177100 32.665900
H 16.055500 10.933000 32.277300
H 15.585600 10.183800 32.744200
H 14.531500 11.695600 31.967100
H 15.519700 11.921700 31.756400
H 16.525400 11.682100 31.810400
H 17.345300 9.303220 0.739569
H 17.579400 10.170400 32.587600
H 17.279400 11.041100 32.114700
H 18.509400 12.954900 4.300860
H 19.359400 12.440100 4.010450
H 20.387100 12.401200 3.890870
H 21.317000 12.848600 3.974140
H 20.204700 13.308700 4.269410
H 21.900000 13.662500 4.237960
H 18.064800 13.807700 4.684260
H 18.144700 14.769900 5.057940
H 19.265900 13.585500 4.474400
H 19.083500 14.493000 4.852950
H 20.022400 14.216200 4.647950
H 20.961200 13.939300 4.442960
H 21.979900 14.624700 4.611640
H 20.778800 14.846800 4.821500
H 19.657600 16.031200 5.405040
H 19.840000 15.123700 5.026490
H 18.727700 15.583700 5.321760
H 21.535300 15.477500 4.995050
H 20.685300 15.992300 5.285450
H 21.759100 6.060020 30.700900
H 21.764600 6.063610 30.729200
H 22.263900 6.094870 29.838300
H 21.761600 4.987800 30.079300
H 21.777900 4.977320 30.132700
H 22.284100 6.078830 29.874800
H 21.315800 5.210420 30.986900
H 21.316700 5.220580 31.027100
H 21.095400 5.915620 31.761900
H 21.107600 5.888330 31.741200
H 22.212500 6.906650 30.431300
H 22.140800 7.724360 30.991600
H 21.697600 6.874760 31.277500
H 22.202400 6.909620 30.415000
H 22.140900 7.734460 30.987800
H 21.693000 6.891430 31.285700
H 21.192700 6.839900 32.140100
H 21.173500 6.876210 32.140100
H 21.530000 7.844950 32.060500
H 21.548400 7.810150 32.076800
H 22.069400 8.562280 31.544300
H 22.079300 8.539100 31.568200
H 22.895000 5.968340 28.802200
H 22.856300 6.009080 28.753100
H 22.355600 5.251020 29.318400
H 22.325400 5.280130 29.261700
H 23.251500 6.937080 28.722500
H 23.212000 6.979330 28.689800
H 23.329500 7.897670 29.100800
H 23.297100 7.930900 29.088800
H 22.707200 6.944480 29.552400
H 22.732000 6.921870 29.576900
H 22.645600 7.759220 30.129000
H 22.660400 7.749680 30.133400
H 22.643200 8.831430 30.750600
H 23.088900 8.608820 29.843100
H 23.108300 8.592710 29.835500
H 22.647100 8.835980 30.729900
H 20.694400 19.971800 3.927120
H 21.065100 21.095000 4.297240
H 21.599700 21.651400 3.327330
H 21.177000 20.707900 3.381980
H 20.048000 19.802600 5.812290
H 20.281100 19.640500 4.816670
H 21.401200 22.015900 4.495160
H 20.953300 21.482200 5.212500
H 20.505400 20.948400 5.929850
H 20.617200 20.561300 5.014590
H 20.057400 20.414700 6.647190
H 20.306900 21.312900 7.097680
H 20.841500 21.869300 6.127760
H 20.729600 22.256400 7.043030
H 20.202700 23.105800 2.362180
H 21.264900 23.597800 1.955190
H 20.996900 22.636400 1.892220
H 22.148900 23.895200 1.594290
H 21.934700 22.682300 1.456010
H 20.648900 24.261900 2.379050
H 21.532900 24.559200 2.018160
H 20.916900 25.223300 2.442020
H 21.800900 25.520600 2.081120
H 22.068900 26.482100 2.144090
H 19.764900 23.964600 2.739950
H 21.849200 22.549600 3.777810
H 19.800900 24.982700 2.924320
H 20.300900 25.887400 2.865880
H 21.131000 26.436200 2.580300
H 21.858600 23.161700 4.612720
H 21.625500 23.323900 5.608340
H 21.289400 22.403000 5.410420
H 21.212200 22.992500 6.497890
H 22.764800 23.231100 1.170430
H 23.264900 24.135800 1.111990
H 23.300800 25.153900 1.296360
H 22.416900 24.856600 1.657260
H 22.863100 26.012700 1.674130
