9000
Atoms. Timestep: 0
O 3.426880 1.404250 1.382500
O 3.716310 2.270610 1.736820
O 4.278020 1.598310 2.139010
O 2.622420 1.755280 1.018840
O 3.037110 2.585700 0.933336
O 5.190250 2.181100 3.218940
O 4.702000 1.441150 2.922780
O 3.337260 3.889420 29.388300
O 1.931620 4.509510 29.154400
O 1.318310 5.001320 28.670300
O 2.847070 4.674380 29.331100
O 3.108220 3.236890 31.250500
O 3.384530 3.493850 30.254000
O 3.026480 4.382240 30.559400
O 3.353490 2.336430 31.474900
O 2.940660 2.434510 32.360800
O 2.399370 3.322420 31.841700
O 2.650200 4.151440 31.422300
O 1.124770 6.771320 30.574400
O 1.793000 7.199110 30.027600
O 2.192770 8.330030 30.166800
O 2.484150 9.269620 30.162000
O 1.311790 7.983750 30.314200
O 3.283700 8.771490 30.425900
O 32.104600 6.022560 28.406500
O 32.918100 5.592340 28.724500
O 32.137800 6.527020 29.207700
O 31.839300 7.002620 29.993800
O 32.749000 7.306810 30.998800
O 32.377700 6.428330 30.578800
N 1.990750 3.474620 1.650030
N 1.800520 4.100640 2.316010
N 1.379000 4.139540 1.395450
N 0.969359 3.501020 0.727371
N 3.358040 3.881250 2.199800
N 3.995660 4.251950 1.514580
N 1.783630 5.185360 2.091140
N 1.791990 5.137020 1.065090
N 1.238310 6.106530 2.241070
N 0.951620 5.481790 1.220720
N 0.875518 4.610590 0.782516
N 2.660370 4.417120 1.896390
N 1.323110 2.294310 3.074200
N 1.549610 1.418950 3.436500
N 2.448310 1.641720 3.374870
N 3.363980 0.882708 3.258770
N 3.130720 1.435720 4.040330
N 1.895620 2.931310 2.641590
N 1.946690 3.031530 3.681560
N 1.563460 3.939270 3.547030
N 2.249620 5.761470 2.639110
N 1.637450 4.631390 4.227650
N 2.397290 4.829380 2.950340
N 2.587760 5.604640 3.483350
N 2.544270 4.687360 3.917280
N 0.830199 5.335200 4.860730
N 1.989870 5.229230 4.874900
N 0.753761 5.530540 5.900450
N 2.106070 6.083000 4.469910
N 3.561300 5.500010 5.503170
N 2.633510 5.648010 5.414310
N 3.928740 5.632410 6.385840
N 5.128950 6.035190 31.211400
N 5.419720 5.433260 30.496300
N 4.203310 4.086240 32.924500
N 4.066030 4.984640 32.617000
N 3.497970 5.818100 32.325400
N 1.989550 6.707100 2.456630
N 1.399880 6.738190 3.173220
N 1.683320 7.615130 3.578250
N 3.320230 7.815280 3.522590
N 1.355820 7.994560 2.546150
N 1.064620 8.663050 3.211040
N 1.146370 6.157820 5.259200
N 1.327650 7.136110 5.040100
N 2.075930 6.654920 5.235970
N 1.998470 7.195050 4.341060
N 2.923930 7.549520 4.327050
N 1.190960 9.634220 5.424290
N 1.082560 9.281220 4.521490
N 1.165150 8.014250 4.631320
N 3.024990 9.579700 5.783260
N 3.501560 9.884020 5.071880
N 4.315420 9.799290 5.594380
N 1.280430 6.560600 6.916020
N 0.863494 6.579560 7.761230
N 1.695360 9.700070 6.251010
N 2.465750 10.197600 6.115200
N 4.345800 10.319900 7.455870
N 4.401810 10.189300 6.487510
N 3.629220 9.353280 9.649500
N 4.199600 10.162000 8.426390
N 3.987860 10.204000 9.317700
N 4.425580 6.742360 31.218000
N 3.665150 6.488610 31.737500
N 32.712300 3.731110 1.398710
N 32.275900 3.804760 2.202450
N 31.499000 3.999610 1.206280
N 30.313600 5.281020 0.896205
N 29.709800 5.569190 1.573680
N 30.844900 5.393360 1.931700
N 30.571300 4.536620 1.422050
N 31.450900 4.582790 2.011470
N 32.909300 4.184710 4.157170
N 32.243600 3.402740 3.045860
N 32.867300 4.095900 3.229600
N 29.757400 5.932220 4.145680
N 31.017700 5.242240 3.904210
N 30.454300 5.529550 2.974110
N 31.373700 5.573230 2.735090
N 32.041100 5.682130 3.588120
N 31.877000 4.477100 3.657960
N 32.033000 4.772860 2.725380
N 32.708000 5.889340 4.223120
N 32.912900 5.095190 3.827000
N 30.321000 5.309130 4.610280
N 31.472400 5.852630 4.466400
N 31.953800 5.039930 4.454910
N 30.497300 6.040520 7.555860
N 32.858100 6.069970 6.624870
N 30.436100 5.736730 9.116190
N 31.233800 5.426930 8.718830
N 31.950400 5.962420 8.966160
N 32.886800 3.012080 32.384200
N 30.818000 5.589630 32.425200
N 31.022500 4.528100 32.930400
N 29.879200 6.387410 1.063000
N 29.881200 6.938800 2.262050
N 29.695800 7.898740 2.266100
N 30.522300 6.245410 2.239690
N 32.440500 6.146900 0.876656
N 32.268900 7.191880 1.790070
N 31.376400 7.867500 1.403640
N 31.701900 6.915170 1.079270
N 32.832400 6.333010 1.731370
N 32.929700 7.862510 2.020090
N 31.169500 8.827530 1.259640
N 31.195000 9.488170 1.922340
N 30.509700 8.662390 2.171140
N 31.860200 8.144820 2.196410
N 29.823800 6.764030 3.529400
N 30.595600 6.947910 3.060570
N 30.028100 7.744920 3.170630
N 30.551600 6.371040 3.979410
N 32.898300 7.012540 2.515760
N 32.944700 7.866240 3.178730
N 31.366700 6.349360 3.362220
N 31.300500 7.120780 3.913940
N 32.040700 6.670010 4.273800
N 29.906700 8.741820 2.958830
N 31.222800 9.025300 2.757540
N 30.408300 8.614640 3.742850
N 29.806300 9.300100 4.057830
N 32.929100 8.583800 3.992260
N 32.192000 8.617480 2.952670
N 31.531300 8.940930 3.685760
N 31.176900 7.791750 5.324480
N 32.894800 7.670200 5.282080
N 31.871000 7.370710 4.910860
N 32.806400 6.706860 5.058850
N 31.085200 8.286800 4.439810
N 29.903900 9.373750 5.003540
N 32.006800 9.464390 4.374890
N 31.950300 8.578580 4.667280
N 29.407900 7.502270 7.820270
N 28.574800 7.316440 7.454110
N 30.349200 6.979340 7.266520
N 32.812900 6.999520 6.874590
N 28.815300 8.295980 7.278240
N 29.843900 8.412350 7.312820
N 30.635200 7.916060 7.194310
N 30.684200 6.454410 8.478320
N 32.424200 6.375830 8.230550
N 28.784100 8.078010 8.233420
N 29.229000 6.782970 32.829900
N 28.904600 7.598270 32.515000
N 29.838300 7.681490 32.756800
N 30.617200 7.183160 32.916400
N 30.388800 6.390160 32.495300
N 31.676300 6.243250 32.701100
O 5.720660 3.706310 2.306960
O 4.847760 3.653120 2.670580
O 5.089720 4.443520 3.190080
O 6.024770 4.474560 2.953550
O 5.230830 5.584840 3.318840
O 5.822990 4.979010 3.744890
O 5.245300 5.616110 4.330170
O 5.750420 6.378000 4.823380
O 5.776160 7.029480 6.047990
O 5.573850 6.168110 6.454580
O 7.644830 3.528250 2.079080
O 6.671460 3.455970 2.375900
O 8.408940 2.070220 3.102820
O 7.689290 3.110680 2.934730
O 7.947460 2.737340 3.775810
O 8.011100 4.015800 5.697360
O 8.657080 4.985070 5.535320
O 8.073670 4.501610 4.884470
O 9.480990 4.442730 5.448590
O 9.308360 4.209250 6.366220
O 9.250470 3.697400 7.372050
O 10.090100 3.962160 6.912960
O 7.877990 5.560670 7.292160
O 7.178180 5.751520 6.656460
O 8.547860 4.971060 7.648040
O 8.957940 4.251930 8.077360
O 7.162840 6.991480 5.074040
O 6.461290 6.532390 5.583770
O 6.438630 6.905600 4.365280
O 6.378260 6.215450 6.947140
O 5.597930 4.937720 0.920920
O 5.689540 5.864620 1.207950
O 5.930170 6.778730 1.582300
O 4.310240 7.317940 1.485040
O 5.200960 7.355070 1.898290
O 3.846150 8.127230 1.208530
O 4.708720 9.213520 0.841343
O 3.496730 9.990100 1.487270
O 3.106130 10.326400 2.274290
O 3.991860 10.021400 2.478250
O 4.328360 10.184300 0.950090
O 4.045860 8.931950 3.181180
O 5.500270 8.454910 2.600180
O 4.877920 8.437710 3.364820
O 5.926930 8.775150 3.382520
O 3.472820 9.742350 3.271650
O 4.188670 8.526040 32.818200
O 7.209440 5.382990 1.813600
O 7.512370 5.151000 0.961194
O 6.524740 5.160920 1.181970
O 7.736570 5.949960 32.798700
O 7.142920 5.302510 32.478700
O 7.317320 6.434010 2.413180
O 7.816550 7.278400 2.315840
O 8.653580 7.577400 0.816270
O 8.506370 7.164840 1.678370
O 6.613580 8.345660 3.906400
O 7.526630 8.541800 4.139130
O 8.244990 6.447330 32.189800
O 8.410680 7.375080 32.283500
O 5.857380 0.730461 4.298970
O 5.677540 2.464890 4.713220
O 5.991280 1.544530 4.754310
O 5.732620 3.334650 4.987770
O 6.019720 31.529300 4.041110
O 9.795840 2.350850 2.251150
O 9.395570 3.361330 1.086450
O 9.765040 3.482670 1.955000
O 10.572900 2.899910 1.956300
O 10.586900 2.169350 2.748300
O 11.264200 1.210580 4.037930
O 10.476900 1.569450 3.536590
O 8.080970 2.358540 5.830450
O 8.510120 1.493670 5.918330
O 6.533800 2.855560 5.245440
O 7.335580 3.020050 5.767480
O 9.399500 1.417910 6.273380
O 11.470700 1.798110 6.475410
O 10.722700 2.296630 6.282770
O 10.052600 1.989790 6.879870
O 7.760750 29.879900 4.305440
O 6.676320 30.789100 3.894390
O 6.251890 32.403300 3.681850
O 8.572620 31.392000 4.194160
O 7.262980 30.594100 4.631270
O 8.592980 30.405400 4.394090
O 11.322800 32.681800 5.812560
O 11.863500 0.753909 4.618280
O 11.902600 1.042550 5.990060
O 12.006400 32.352000 5.219190
C 1.840940 2.227840 5.968960
C 1.065580 1.693990 6.088110
C 1.570820 3.019290 6.422060
C 1.927220 3.942590 6.407390
C 2.240780 4.186750 7.299970
C 1.333870 3.899970 8.738770
C 2.242950 3.832500 8.173630
C 2.159410 3.543370 9.084090
C 4.079310 28.020900 3.462980
C 3.998220 28.838700 3.946600
C 4.417810 28.782600 2.977950
C 0.758556 31.143400 3.031340
C 1.292570 30.152600 3.587640
C 1.184590 32.218900 3.371700
C 1.174560 31.430900 3.872010
C 2.800130 29.198700 6.012860
C 2.967450 29.446600 5.123360
C 4.877860 29.045600 5.325290
C 4.427380 28.437400 4.721730
C 1.694910 29.912400 4.421410
C 2.418400 30.174900 4.972840
C 4.342730 29.490200 6.041050
C 2.675520 29.070200 7.696920
C 3.695830 29.220700 6.749770
C 3.633340 29.317800 7.696600
C 2.712730 29.661800 6.946410
C 19.962000 1.051680 1.127440
C 20.355300 1.135910 3.518610
C 21.213700 1.256150 3.871470
C 21.627100 1.436580 4.765960
C 21.031700 1.423260 5.512990
C 20.725500 1.236980 32.859500
C 20.165600 32.957700 1.888650
C 22.143200 32.372000 0.816932
C 21.360200 32.973100 0.882712
C 20.673600 33.035400 2.669830
C 20.980600 32.888400 5.847270
C 22.641900 2.234890 2.395880
C 25.839700 1.118380 2.474260
C 25.299800 2.039680 0.741135
C 26.612900 1.887080 2.359260
C 26.750900 0.967062 2.203810
C 26.187700 1.734680 0.988744
C 27.410100 1.763480 1.864180
C 26.697900 2.367020 1.511170
C 27.371000 1.331370 0.898468
C 23.034900 3.055100 2.153750
C 23.181100 3.818660 1.605410
C 23.617800 3.094110 1.101310
C 24.191300 3.869180 1.050170
C 26.522000 4.233590 0.738012
C 26.983000 3.820120 2.207500
C 27.191300 2.804830 2.219030
C 26.290000 3.010680 2.491350
C 25.045800 4.351410 1.241710
C 25.750600 4.522160 1.855480
C 26.349500 5.260770 1.958950
C 26.991000 4.870060 1.370140
C 27.645900 4.531440 2.244250
C 24.202000 0.783866 3.051120
C 24.443400 1.283280 3.793180
C 24.780600 2.194710 3.947610
C 25.614700 1.045530 3.419240
C 25.630600 2.134740 3.402450
C 26.049700 1.625020 4.067020
C 27.104800 1.392570 4.265710
C 27.646300 2.184260 3.982860
C 24.948500 3.293930 3.803170
C 25.700000 2.828160 4.269650
C 26.387900 3.552590 4.158370
C 26.076600 3.526560 3.244610
C 27.286900 4.177900 3.685730
C 26.682600 4.754680 4.127460
C 26.659400 1.571280 5.066160
C 26.562400 2.617150 4.536710
C 27.199500 3.480690 5.710920
C 27.284100 3.223790 4.321690
C 26.523900 4.161130 5.343560
C 25.608300 4.426460 5.549780
C 26.031900 4.908280 4.824360
C 24.715100 1.288710 32.780900
C 26.578100 0.910784 32.964100
C 27.357700 1.714790 32.079100
C 23.168100 3.817730 33.026700
C 27.375500 4.531320 32.416700
C 26.453700 4.327920 32.166400
C 26.003500 27.674700 6.468870
C 23.791600 32.327000 1.189980
C 23.019800 31.799500 0.933330
C 24.510400 32.905300 1.067380
C 26.975000 32.362600 1.798540
C 25.977300 32.280200 1.935100
C 26.631600 31.769800 2.425600
C 27.390100 31.283900 1.809180
C 27.661600 32.988600 1.685480
C 27.076700 30.936800 2.911840
C 25.025300 32.800600 2.681070
C 26.155400 32.705800 2.839920
C 26.552600 31.919800 3.606380
C 26.258900 32.822400 3.886300
C 27.415000 31.743600 3.307790
C 27.344800 32.693600 3.973590
C 27.128800 29.006600 6.021850
C 27.479900 30.908600 5.938490
C 26.461400 29.668500 6.033510
C 26.578300 30.619900 6.008740
C 27.617500 32.709300 4.896640
C 27.563700 31.832500 5.770680
C 26.782600 32.165700 4.557450
C 27.187300 32.708100 5.785520
C 26.502700 33.068700 4.807130
C 26.283400 28.277500 7.170110
C 26.268300 28.606500 6.227830
C 22.613800 32.734100 32.413200
C 22.715000 31.643800 32.403800
C 22.725800 32.201500 31.653200
C 24.504900 32.734200 32.486100
C 27.315600 32.080200 31.851500
C 27.276300 32.680800 32.619800
C 28.301300 1.516240 1.202100
C 28.922800 2.354200 1.027340
C 27.923800 2.498130 1.553120
C 29.047500 1.229880 0.726516
C 30.215300 1.698120 2.240170
C 30.451400 0.825865 2.013780
C 30.984800 2.219940 1.501440
C 32.563300 1.316900 1.630760
C 31.912800 1.908210 1.491260
C 28.543500 3.305730 1.409230
C 27.788400 3.537200 1.901930
C 28.984600 3.907440 0.774852
C 27.750900 4.061220 0.848721
C 29.933700 2.596920 2.483010
C 30.717200 2.985550 2.045970
C 30.248500 3.638550 1.106660
C 30.368100 4.086340 2.284100
C 30.982600 3.120320 0.849535
C 28.327400 4.398540 1.529660
C 29.468700 4.426020 1.565920
C 29.543100 4.597680 2.486500
C 28.695000 0.981563 3.169950
C 28.502400 2.081540 3.329580
C 27.924900 1.366840 3.652500
C 29.237600 1.818090 2.849590
C 29.476900 1.124330 3.668310
C 29.566400 0.846155 2.514640
C 30.145000 1.588660 3.253400
C 31.860100 0.812793 3.970630
C 28.385300 3.047270 3.542170
C 28.222500 3.790260 4.135110
C 29.152700 2.944140 3.010170
C 28.934400 4.074700 3.424010
C 29.463200 3.472810 3.928350
C 29.775900 3.649420 2.860810
C 28.085200 4.794910 3.604200
C 28.525200 4.656210 2.768100
C 28.775100 1.965920 4.317940
C 28.885700 1.547100 5.315290
C 30.522700 2.051890 5.918520
C 29.545000 1.981030 5.823060
C 29.629700 1.784370 4.683390
C 32.308400 1.104490 4.802950
C 32.814000 1.667030 5.402670
C 28.064300 3.437290 5.311170
C 28.390600 2.791600 4.673310
C 28.899100 3.733510 4.817040
C 29.857900 3.880400 4.743580
C 31.504500 2.676180 5.847400
C 31.363100 3.536740 6.033850
C 31.565400 4.315470 5.557190
C 30.530800 0.859782 7.618790
C 29.626600 1.097730 7.705880
C 31.331500 1.937640 6.430550
C 29.120000 1.220560 8.525550
C 28.438600 2.044410 8.441420
C 28.105100 1.383820 9.018420
C 30.889000 0.877555 8.538830
C 31.034700 1.431080 9.319500
C 30.796600 2.506010 9.289460
C 30.338300 2.653930 8.441070
C 31.067200 2.824600 7.931430
C 31.812400 3.412920 7.978390
C 31.920000 3.685170 8.925740
C 32.745000 4.060320 8.532350
C 30.295200 1.864630 9.842140
C 30.926800 5.336100 31.231100
C 28.648800 0.728339 31.441500
C 28.104300 1.520210 31.566200
C 29.301200 0.808996 32.093000
C 28.256700 2.086540 32.762600
C 27.897300 2.501400 32.000500
C 30.807100 2.094300 32.726300
C 30.241700 1.473040 32.250400
C 29.600000 2.113730 32.812200
C 29.955100 2.585140 32.036900
C 31.004400 2.519060 31.933900
C 29.544200 3.152150 33.070900
C 32.255900 4.069170 32.750200
C 31.932900 3.177480 32.988800
C 32.287500 4.984980 32.710800
C 32.744000 5.749160 32.342100
C 31.304400 6.097900 31.593500
C 32.251500 6.280900 31.771000
C 29.686500 29.085100 1.370360
C 27.768500 30.605100 2.277950
C 30.346200 29.769600 1.397880
C 30.848300 30.572000 1.589410
C 28.648600 31.929100 0.847180
C 28.345600 31.283900 1.666640
C 27.845600 32.052300 1.312070
C 29.225200 31.442400 2.228180
C 28.430500 32.983500 1.112240
C 29.616900 31.714900 1.279720
C 29.931800 32.150700 2.312680
C 30.561300 31.458700 1.631230
C 30.539700 32.417700 1.302810
C 31.394200 31.981000 1.084870
C 31.938100 31.455700 1.606430
C 32.386100 31.737600 2.452850
C 32.890800 30.260800 3.035570
C 28.989200 32.447700 2.766350
C 28.203500 32.601700 3.410170
C 28.923300 32.193800 3.833420
C 28.544700 31.605500 3.068360
C 31.078700 32.707200 3.721120
C 30.728800 32.052400 2.864460
C 30.468400 32.964700 3.023500
C 33.036300 32.411100 2.546060
C 29.768400 30.665600 30.662800
C 29.894100 29.279900 32.100400
C 30.281100 28.990200 32.947800
C 28.760100 31.208700 32.187400
C 29.933500 30.178900 31.454900
C 30.726600 29.762000 31.873100
C 28.094200 31.517800 31.614800
C 29.238300 32.515800 32.747300
C 29.597700 31.394100 32.706500
C 30.993300 32.676900 32.861800
C 30.094300 33.005600 32.892000
C 30.376400 32.965900 31.956500
O 3.010730 2.239490 5.888140
O 3.709550 2.456780 6.985010
O 3.707550 2.921470 6.143590
O 2.256540 1.042250 9.643260
O 2.797400 1.184050 7.992230
O 2.833700 1.292510 8.968200
O 3.542220 1.759160 8.065030
O 3.891520 2.638180 7.978970
O 4.189050 2.870840 9.049140
O 3.399260 3.308710 8.715460
O 3.987940 4.037820 8.860730
O 4.519070 3.918650 9.677170
O 2.481170 2.453130 10.749500
O 2.579120 1.709740 10.218300
O 3.001220 3.250790 10.531300
O 3.666180 3.002170 9.861680
O 4.955580 3.883950 10.505900
O 5.905550 4.173210 10.234100
O 10.439500 1.902620 9.675870
O 11.306700 1.494760 9.511020
O 7.535310 3.971080 11.467000
O 6.305830 4.058410 11.095100
O 8.959890 4.073130 10.200600
O 9.662110 3.501000 9.806720
O 8.384140 3.995930 10.983100
O 9.805110 2.533230 9.917640
O 7.587600 4.947750 11.319900
O 6.392390 5.001100 10.742300
O 6.832240 5.549880 11.374400
O 11.920200 0.942566 9.034470
O 3.433830 1.104230 5.823840
O 4.884940 2.296610 5.687200
O 4.864060 3.284060 5.682780
O 4.225000 1.774920 6.132800
O 4.435090 0.879487 6.431830
O 5.218430 3.581330 7.185430
O 5.843030 4.296960 7.037520
O 4.847940 3.924470 6.430290
O 4.251840 31.137100 4.725660
O 2.638500 31.921100 5.155780
O 2.951110 32.625800 5.748040
O 3.424840 31.413400 5.176870
O 4.239220 33.054200 5.516610
O 7.078620 1.961640 7.469490
O 7.811270 2.518100 7.654430
O 7.106490 3.107920 7.752680
O 6.744790 3.929310 7.744640
O 6.739060 4.093520 6.772480
O 7.469930 1.693280 8.259280
O 8.076790 1.353650 8.917580
O 8.126580 1.450800 9.876600
O 8.242780 28.876500 9.603110
O 6.751190 29.646800 9.069480
O 7.625610 29.594800 8.752140
O 6.983450 30.508700 8.736460
O 8.527490 29.770200 9.666500
O 8.009000 30.387500 9.128290
O 7.352600 32.194200 9.401790
O 7.339350 31.388500 8.812550
O 7.539900 33.028500 9.781520
O 5.937380 0.773412 6.571400
O 3.481710 24.047800 9.304590
O 4.044900 23.290800 9.136670
O 5.746530 26.111000 9.661770
O 3.504480 23.109500 9.945430
O 3.681660 23.863000 10.519000
O 5.456360 24.131800 10.984600
O 4.531700 24.157000 10.877000
O 5.625380 25.389500 10.301100
O 5.144180 25.078400 11.131700
O 5.505910 30.126500 5.798390
O 5.442120 28.768500 7.350550
O 5.555310 30.116500 6.757440
O 5.632340 29.672500 7.595520
O 6.631320 1.439620 6.358260
O 6.254340 2.229800 6.792130
O 6.178060 26.914900 9.487750
O 6.122130 27.433100 8.187410
O 6.294600 26.590500 8.582750
O 6.296470 29.662600 5.638760
O 6.276100 28.559800 7.791760
O 6.915440 27.858000 7.821990
O 7.494600 31.025000 7.745950
O 6.767040 30.728900 7.192340
O 6.674090 30.190100 6.385690
O 7.321090 33.006500 6.117250
O 7.824060 32.440900 6.683130
O 7.289350 31.714100 6.958560
O 6.667790 32.511400 6.684030
O 8.100270 31.785100 7.628010
O 5.447110 5.562970 9.161870
O 5.649650 5.067370 8.338440
O 4.681370 5.978890 8.686870
O 5.553130 7.638330 8.493550
O 4.990010 6.880940 8.414130
O 5.412980 8.475710 8.908120
O 6.040810 8.547480 9.627930
O 5.787790 8.619310 10.508300
O 7.739230 5.407470 8.306480
O 7.212640 5.030580 9.005910
O 6.484050 4.661270 8.550960
O 9.446320 5.894150 9.069580
O 8.565990 5.774390 8.783230
O 9.631100 9.403360 6.647010
O 10.531500 9.119490 6.926760
O 9.726480 10.027900 7.331900
O 9.170280 6.972030 8.421560
O 9.328390 6.841970 9.344010
O 9.897730 7.490410 8.130500
O 10.124100 6.559230 8.401080
O 8.410890 9.598110 8.558140
O 7.131400 10.319000 9.588560
O 8.341320 10.700400 8.821840
O 8.121410 10.047600 9.502020
O 9.095370 10.200800 9.089600
O 9.284090 9.738900 8.132830
O 10.026100 6.341340 9.761030
O 6.831850 8.804980 10.766200
O 6.151030 8.665170 11.375500
O 6.781370 9.422820 9.993800
O 1.657880 1.065740 11.097500
O 0.892813 1.124260 10.529500
O 1.627980 1.755900 12.856300
O 1.203190 1.083250 11.928400
O 1.246450 2.610540 13.035100
O 1.705610 3.317770 12.461500
O 2.324530 3.235330 13.190100
O 3.629250 4.842380 12.812200
O 4.125690 4.628810 12.050000
O 5.709830 5.209660 13.196800
O 4.996640 4.878540 12.398300
O 5.754080 4.389590 12.750300
O 1.559300 1.828100 13.825600
O 1.882010 1.000170 13.568700
O 2.143450 4.067960 13.598400
O 3.071360 4.268130 13.394800
O 5.069010 4.068640 14.326900
O 5.961720 3.928880 14.579900
O 5.554390 4.893880 14.149200
O 1.227210 31.404000 13.621600
O 0.905242 31.436900 14.475900
O 1.037630 32.357600 14.299200
O 1.087160 32.913500 13.536000
O 6.564240 3.336790 14.124200
O 6.481310 2.656370 13.491800
O 32.352700 0.822751 10.894500
O 32.911100 0.766564 12.571200
O 33.018500 31.293000 12.831700
O 32.098400 32.580600 12.330300
O 32.645600 32.139600 13.048900
O 4.187200 0.853118 10.655400
O 4.589510 0.903768 9.801720
O 3.298610 26.381100 9.411610
O 3.113980 27.281500 9.606440
O 1.559070 26.923400 9.902020
O 0.756126 27.389300 10.141700
O 2.438820 26.402400 9.748680
O 4.636090 32.077800 7.822230
O 1.439430 28.762500 9.065520
O 1.203170 27.970400 9.588320
O 3.760620 28.062000 9.302730
O 3.172040 28.766800 8.999930
O 4.062580 29.168500 9.004690
O 0.853537 29.754600 8.947440
O 4.549480 30.000300 9.348360
O 5.106970 32.576700 8.493670
O 5.329220 32.807400 9.484990
O 0.825834 29.138500 9.721330
O 4.108990 30.455400 10.068500
O 3.456920 30.450400 10.737700
O 2.728580 31.005500 10.647000
O 3.330330 31.695800 10.933600
O 3.694790 32.475000 10.524500
O 29.424400 27.670200 6.925070
O 29.376200 27.928500 7.850700
O 30.144300 28.438300 8.011080
O 30.566100 29.312500 8.141210
O 31.137300 28.540700 8.304870
O 32.766300 28.923000 8.848980
O 31.833800 28.765500 8.878340
O 1.243450 5.406870 10.221500
O 0.917058 6.266270 10.152800
O 27.427600 4.770800 12.739000
O 27.178700 3.408640 13.389100
O 27.244200 4.924460 14.695700
O 26.483600 5.247380 14.272000
O 26.937500 4.695240 13.561400
O 27.526200 3.341210 15.108300
O 26.746200 3.969210 15.297900
O 27.546500 4.491540 15.465000
O 32.832800 4.948950 10.332800
O 32.849500 5.695100 10.966300
O 27.852400 4.115190 13.280700
O 29.321400 2.912000 12.832400
O 29.447400 3.812740 13.037300
O 32.113900 5.116740 12.738800
O 32.986700 5.407170 12.929100
O 32.970900 5.545370 11.899800
O 27.746000 2.902980 13.935000
O 28.566800 2.846180 13.395800
O 29.226700 3.548700 15.050700
O 29.313700 4.469380 13.723100
O 31.077600 5.465750 13.662200
O 30.336400 4.848960 13.877700
O 29.552600 5.144290 14.330400
O 31.492700 4.685260 13.333400
O 28.313800 3.724290 15.373000
O 29.721900 2.752750 15.387300
O 30.103400 3.561020 15.709100
O 32.555500 6.168790 12.502200
O 5.711020 1.255490 12.173600
O 5.029220 1.599480 12.710000
O 4.724180 0.952348 13.288700
O 4.357090 0.813831 12.447000
O 3.468350 32.554300 12.534100
O 2.663290 32.208000 12.813000
O 4.349050 32.190700 12.350600
O 5.585270 32.846600 12.755800
O 2.743140 31.507500 13.486400
O 3.493640 31.962600 15.068700
O 2.862710 31.609500 14.447600
O 5.699030 28.830000 15.689300
O 4.054750 31.232700 15.278700
O 5.906570 29.750300 15.453800
O 5.719410 31.144700 16.735100
O 6.031670 30.440900 16.141900
O 5.346340 31.984800 16.513700
O 4.591810 31.517800 16.057900
O 6.653250 1.605970 11.325100
O 8.400640 1.333340 10.877700
O 9.033030 0.758828 11.318500
O 6.803740 1.114530 12.179400
O 7.384600 2.035430 11.820400
O 8.351070 2.016890 11.549100
O 8.149210 31.917300 11.206000
O 6.559920 31.168100 12.115900
O 7.418520 30.697200 12.015000
O 6.484890 32.608100 12.504000
O 7.490110 31.669700 11.833600
O 8.497770 32.503800 11.843000
O 1.650630 1.390060 15.959100
O 2.313160 1.062660 16.601100
O 1.980000 2.202870 16.310400
O 1.238500 3.396120 15.152800
O 1.307160 2.672190 15.828300
O 0.966659 2.103750 17.285700
O 1.541500 1.338670 17.084500
O 1.204460 2.754910 17.986600
O 32.875700 3.739780 14.685300
O 32.628400 2.077170 18.108400
O 32.854000 2.930820 18.572700
O 32.210200 2.266880 18.984300
O 31.444200 1.784650 19.298600
O 31.773100 1.112260 19.889800
O 32.664900 0.842737 21.857700
O 28.531500 1.198470 22.480700
O 30.751800 1.309640 23.317500
O 29.977800 1.430030 23.844700
O 31.130700 1.684110 22.532500
O 31.981500 1.301480 22.303400
O 32.382400 32.812500 19.598200
O 32.909400 32.814600 20.375800
O 28.093400 33.036200 21.841900
O 32.184000 32.326500 20.793700
O 32.627400 32.238900 21.651300
O 29.195500 31.945200 23.376100
O 28.791300 32.674500 22.828200
O 27.923700 32.428700 22.530600
O 29.582000 32.977700 23.636400
O 29.504300 32.247100 24.268400
S 3.973490 1.287930 16.307500
S 4.114630 2.045480 15.786000
S 3.822010 2.747520 16.403200
S 6.090780 5.987080 16.259300
S 3.378370 1.716410 16.901800
S 2.175160 4.122610 18.334600
S 3.646570 3.603000 16.918100
S 3.218900 3.220600 18.052500
S 3.090800 4.040860 18.454300
S 3.339680 2.521920 17.435100
S 5.941440 3.731470 18.227400
S 4.053330 4.374680 17.384900
S 4.661340 5.136870 18.121600
S 5.186020 0.824396 20.489900
S 5.577250 3.435430 19.052700
S 4.708120 3.739930 19.330400
S 4.858590 3.315460 20.161400
S 2.076560 4.324030 19.250600
S 2.232180 5.265200 19.202200
S 2.836740 5.694560 19.892500
S 4.475070 5.200050 19.080600
S 3.510290 2.284080 22.094300
S 4.578450 1.566160 21.764300
S 3.645160 4.137800 21.758400
S 5.308120 4.048780 20.673400
S 4.510190 4.045210 21.220000
S 3.742030 1.494900 23.874600
S 4.673110 1.562620 23.490400
S 4.397440 2.241700 22.404100
S 2.815630 3.149280 23.405000
S 3.503110 4.054790 22.747400
S 3.186720 3.100350 22.467300
S 5.196650 3.512130 23.548300
S 5.959090 3.760790 24.006400
S 3.957830 5.469690 23.407200
S 4.238800 4.591060 22.985400
S 4.871160 5.346250 24.019300
S 5.008860 4.380090 23.909800
S 1.173930 1.215150 25.041100
S 1.938710 2.088640 24.502500
S 1.048590 1.828410 24.314200
S 2.160250 1.769220 25.371600
S 4.067830 2.387020 24.132100
S 4.922270 1.065000 24.272100
S 3.199200 2.720560 24.140100
S 6.058910 3.109490 24.817500
S 5.246410 2.822810 25.249400
S 3.484270 1.925390 25.973200
S 2.539140 2.249360 26.122100
S 4.231400 1.779200 26.695300
S 4.895610 1.005710 26.592900
S 5.880350 1.362380 27.027300
S 0.813614 3.579960 27.412500
S 5.518410 3.313990 26.049900
S 1.057130 4.390100 26.973200
S 6.037310 5.500860 26.150700
S 6.008910 4.109910 28.676500
S 5.896940 4.667070 27.876800
S 5.915860 4.998900 29.051000
S 3.315310 10.127600 11.369600
S 4.074330 10.884100 12.263300
S 3.534750 10.983300 13.073700
S 3.154520 10.861500 12.032700
S 5.509380 11.375300 12.987100
S 5.682240 6.173490 15.017500
S 6.105400 6.847680 14.460900
S 4.349430 10.838800 13.616000
S 2.543530 7.254140 16.812900
S 2.864680 8.181970 16.561700
S 3.816260 8.097790 16.495900
S 5.957000 9.076380 16.196400
S 2.074130 6.851210 17.627900
S 1.201230 7.219940 17.889900
S 5.860660 6.330850 17.105300
S 4.899460 6.152220 17.270200
S 5.096800 6.299790 18.273800
S 2.232570 8.970660 17.521600
S 1.653620 8.081270 18.154900
S 3.727520 8.781650 18.111800
S 3.544850 8.750790 17.114100
S 2.723810 8.051100 17.753200
S 3.169790 8.187810 18.582100
S 2.214000 9.898570 17.642400
S 3.581330 10.539300 17.818000
S 2.790460 10.523500 17.174800
S 3.679620 10.441500 16.898300
S 4.468600 10.714800 17.566400
S 5.678090 10.984100 18.626000
S 5.105850 10.241300 18.089100
S 5.653230 10.846200 17.621300
S 3.484250 7.047590 20.233200
S 2.744740 6.682370 19.733300
S 4.579100 6.151550 19.082400
S 0.750674 9.049600 19.949900
S 0.989836 8.422350 18.797600
S 3.473750 8.699680 20.236000
S 3.853370 9.521460 20.391600
S 5.125950 9.588100 19.338100
S 5.832960 8.360550 20.270700
S 5.808280 8.990120 19.433700
S 4.577950 10.186500 20.128900
S 5.800750 9.888460 18.720700
S 4.865540 10.706900 19.125700
S 5.048700 11.434700 19.728600
S 3.380150 7.471990 21.085800
S 1.152520 8.792440 20.850700
S 4.038690 7.974700 20.554400
S 5.043460 8.878380 20.566900
S 5.252150 9.430590 22.043000
S 4.853440 8.564830 21.509800
S 5.716640 8.373600 21.833500
S 4.643990 10.129500 22.162100
S 5.273550 10.725000 20.570000
S 5.381390 10.353000 21.404800
S 5.921320 11.252100 21.156500
S 4.777810 9.703720 21.150600
S 5.396650 11.173700 22.115000
S 3.114020 7.763870 23.104200
S 3.849710 7.188110 23.339300
S 3.578180 6.254500 23.792700
S 4.549440 6.239330 23.783400
S 1.000300 9.695170 22.488600
S 3.260210 8.673180 22.932800
S 4.000200 8.880360 22.380400
S 5.418020 8.710820 23.095900
S 5.936190 9.584040 23.076700
S 4.797050 8.343340 22.442300
S 1.617410 10.135900 23.631100
S 2.058230 11.228200 23.293800
S 3.961900 10.967500 23.510300
S 2.969130 11.012900 23.362400
S 4.492330 10.902400 22.706400
S 5.823830 10.176600 22.370000
S 4.095410 7.476340 24.224500
S 4.711270 6.911140 24.628400
S 5.052010 6.901240 25.525400
S 5.914930 9.422340 24.131900
S 1.149930 10.714500 24.273500
S 5.774680 7.084490 27.182600
S 5.101000 7.331470 26.370000
S 4.882710 7.359680 27.335200
S 4.571040 11.548400 12.941000
S 4.048840 12.404100 14.758000
S 4.024900 11.774000 15.440000
S 3.482230 12.263700 16.136400
S 5.179710 12.688900 16.812700
S 4.366690 12.698100 16.247700
S 5.623650 16.308400 15.808300
S 5.596080 16.727100 16.614000
S 4.840350 13.083600 17.661900
S 5.681610 12.873200 18.060700
S 5.581710 12.029400 18.513700
S 5.337010 15.836000 18.414300
S 5.959770 15.110200 18.397200
S 5.874740 16.143900 17.709300
S 3.421260 12.321600 19.836300
S 4.192850 12.211900 19.244100
S 5.089260 12.644000 19.415400
S 5.933460 12.513600 19.821100
S 5.713090 11.770400 20.320600
S 2.236140 14.236000 20.230100
S 4.075710 14.635100 20.310800
S 3.094320 15.000800 20.009800
S 6.018150 13.986900 18.887600
S 5.040130 14.715000 20.267300
S 2.157500 15.193300 20.228400
S 3.963350 15.305400 19.616900
S 4.728100 11.770500 22.102900
S 4.981630 11.846200 21.203200
S 5.655910 12.562500 21.340400
S 1.568250 14.547600 20.865500
S 2.314570 14.358600 21.511500
S 2.688750 13.703300 22.129500
S 4.009030 13.889200 21.896500
S 4.953980 13.790900 21.887400
S 5.865520 13.720600 22.095100
S 3.083430 16.605700 22.231100
S 5.107580 16.133000 21.020800
S 5.768220 16.668200 20.518500
S 4.909930 15.181300 21.085700
S 1.214850 11.698000 23.396200
S 6.020360 12.072700 22.445400
S 3.485620 13.670100 22.661000
S 3.688660 15.099400 23.050500
S 3.676650 15.925600 22.542000
S 4.539560 15.626100 23.178100
S 5.045350 16.318100 22.759000
S 5.673850 15.757100 22.315800
S 4.756870 16.816600 24.227900
S 4.810400 18.147300 14.809500
S 5.430860 19.675200 14.441500
S 5.452350 18.895000 14.988300
S 4.521940 19.902000 14.230000
S 4.278900 18.265000 15.606400
S 4.941760 17.040600 15.926700
S 4.501090 17.836200 16.376900
S 4.294870 20.272400 15.146200
S 4.403290 20.435400 16.084500
S 3.393260 20.588400 16.356700
S 4.083230 20.254300 16.950100
S 3.086250 20.661700 17.294500
S 3.601570 17.145200 21.664300
S 3.719610 18.081400 22.176700
S 4.342220 17.819900 21.537400
S 1.204300 17.910800 22.801100
S 2.042990 17.413100 22.720900
S 2.826790 17.905600 22.420100
S 5.114410 17.652100 24.014900
S 5.289620 18.532700 24.158200
S 4.410030 17.497600 24.799400
S 4.817960 18.377900 25.040000
S 4.537750 18.590000 26.814600
S 4.548470 18.754000 25.891600