LAMMPS (3 Mar 2020)
OMP_NUM_THREADS environment is not set. Defaulting to 1 thread. (src/comm.cpp:94)
  using 1 OpenMP thread(s) per MPI task
Reading data file ...
  orthogonal box = (0 0 0) to (33.79 33.79 33.79)
  6 by 6 by 6 MPI processor grid
  reading atoms ...
  27950 atoms
  scanning bonds ...
  1 = max bonds/atom
  reading bonds ...
  8700 bonds
Finding 1-2 1-3 1-4 neighbors ...
  special bond factors lj:   0          0          0         
  special bond factors coul: 0          0          0         
  2 = max # of 1-2 neighbors
  2 = max # of 1-3 neighbors
  4 = max # of 1-4 neighbors
  6 = max # of special neighbors
  special bonds CPU = 2.46195 secs
  read_data CPU = 2.61015 secs
9000 atoms in group polyA
9000 atoms in group counterions
9000 atoms in group chain
950 atoms in group filler
7100 atoms in group water
1900 atoms in group salt
27000 atoms in group exc
Finding 1-2 1-3 1-4 neighbors ...
  special bond factors lj:   0          1          1         
  special bond factors coul: 0          1          1         
  2 = max # of 1-2 neighbors
  6 = max # of special neighbors
  special bonds CPU = 0.0192466 secs
50 rigid bodies with 950 atoms
Neighbor list info ...
  update every 1 steps, delay 0 steps, check yes
  max neighbors/atom: 2000, page size: 100000
  master list distance cutoff = 1.7
  ghost atom cutoff = 1.7
  binsize = 0.85, bins = 40 40 40
  1 neighbor lists, perpetual/occasional/extra = 1 0 0
  (1) pair soft, perpetual
      attributes: half, newton on
      pair build: half/bin/newton
      stencil: half/bin/3d/newton
      bin: standard
Setting up Verlet run ...
  Unit style    : lj
  Current step  : 0
  Time step     : 0.005
WARNING: Communication cutoff 1.7 is shorter than a bond length based estimate of 1.755. This may lead to errors. (src/comm.cpp:686)
Per MPI rank memory allocation (min/avg/max) = 13.01 | 14.42 | 15.13 Mbytes
Step Temp Press TotEng Volume 
       0   0.79925315     5.549746    17.531711    38580.209 
   10000   0.80020252    11.619109     12.27486    38580.209 
   20000   0.80211344    13.078926    12.664067    38580.209 
   30000   0.79484217    14.549014    12.995921    38580.209 
   40000   0.80106636    16.039399    13.351439    38580.209 
   50000    0.8039062     17.51565    13.688905    38580.209 
   60000   0.80268056    18.965872      14.0134    38580.209 
   70000   0.79974518     20.38178    14.325275    38580.209 
   80000   0.80255914    21.838695    14.671891    38580.209 
   90000   0.80022955    23.308227    14.992698    38580.209 
  100000   0.79234284    24.737563    15.326762    38580.209 
  110000   0.79652357    26.194577    15.666956    38580.209 
  120000   0.80000544    27.616898    16.018449    38580.209 
  130000   0.80601005    29.054365    16.384127    38580.209 
  140000   0.79990273    30.442778    16.727944    38580.209 
  150000   0.80509905     31.86373    17.109668    38580.209 
  160000   0.80003811    33.276751    17.469841    38580.209 
  170000   0.79779109    34.755814      17.8297    38580.209 
  180000   0.79988509    36.180274    18.195167    38580.209 
  190000    0.7958775    37.630906    18.554391    38580.209 
  200000   0.80950529     39.02461    18.958227    38580.209 
  210000   0.80653529    40.415294    19.315293    38580.209 
  220000   0.80562529    41.821129    19.675704    38580.209 
  230000   0.79734334    43.205086    20.021885    38580.209 
  240000   0.79842391    44.631651     20.40497    38580.209 
  250000   0.79481182    46.089565    20.761661    38580.209 
  260000   0.79973336    47.455134    21.139579    38580.209 
  270000   0.79966809    48.875375    21.508433    38580.209 
  280000   0.79769955    50.258425    21.873302    38580.209 
  290000   0.79030437    51.719988    22.218971    38580.209 
  300000   0.80486673     53.04771     22.61504    38580.209 
  310000   0.80739903    54.452658    22.984619    38580.209 
  320000   0.79249017    55.842902    23.338727    38580.209 
  330000   0.80109821    57.234142    23.715309    38580.209 
  340000   0.79948912    58.627366    24.076509    38580.209 
  350000   0.80303883    60.002138    24.448653    38580.209 
  360000   0.80054736    61.444883    24.804396    38580.209 
  370000   0.79864857    62.827727    25.175712    38580.209 
  380000   0.79807317     64.19171    25.549085    38580.209 
  390000   0.80329109    65.627885     25.91754    38580.209 
  400000   0.80069437    66.993903    26.275423    38580.209 
  410000   0.79640121    68.368839    26.630855    38580.209 
  420000   0.79732845    69.833902    26.996581    38580.209 
  430000   0.79498017    71.158589    27.356765    38580.209 
  440000   0.80632859    72.558913    27.727359    38580.209 
  450000   0.80516216     73.89297    28.098893    38580.209 
  460000   0.79896656    75.277363    28.451255    38580.209 
  470000   0.79786697    76.692164    28.820124    38580.209 
  480000    0.7986462    78.082319    29.181985    38580.209 
  490000   0.79800829    79.413401    29.552131    38580.209 
  500000   0.79887858    80.792263    29.894726    38580.209 
  510000   0.79943103    82.176909    30.267942    38580.209 
  520000   0.79562151    83.534711    30.627106    38580.209 
  530000   0.80084035    84.921419    30.986903    38580.209 
  540000   0.79413188    86.227963    31.344728    38580.209 
  550000   0.79263692    87.636023    31.699849    38580.209 
  560000   0.79956727    89.027287     32.07376    38580.209 
  570000   0.80073178    90.447454    32.436366    38580.209 
  580000   0.80436824    91.780619     32.79829    38580.209 
  590000   0.80459448     93.13442     33.16403    38580.209 
  600000    0.8016623    94.445831    33.519464    38580.209 
  610000    0.7983229    95.835526    33.881464    38580.209 
  620000   0.79563597     97.21348    34.229238    38580.209 
  630000   0.80372789    98.603808    34.597958    38580.209 
  640000   0.80026421    99.921145    34.952952    38580.209 
  650000   0.80897996     101.3778    35.327513    38580.209 
  660000   0.80101286    102.69146    35.658056    38580.209 
  670000   0.80544492    104.01724    36.038744    38580.209 
  680000   0.79879931    105.42939    36.385425    38580.209 
  690000   0.79594887    106.75828     36.74203    38580.209 
  700000   0.79680461    108.03445    37.094981    38580.209 
  710000   0.80162565    109.48752    37.462091    38580.209 
  720000   0.80435943    110.86417    37.813471    38580.209 
  730000   0.79830914    112.14386    38.171519    38580.209 
  740000    0.7987819    113.50089    38.541152    38580.209 
  750000   0.79669259    114.85455    38.897436    38580.209 
  760000   0.80519609    116.30698    39.256415    38580.209 
  770000   0.80416605    117.61201    39.619707    38580.209 
  780000    0.8015952    118.89658    39.969214    38580.209 
  790000   0.79744003    120.29206     40.33272    38580.209 
  800000   0.80220097    121.61951    40.682949    38580.209 
  810000   0.80067418    122.95035    41.033639    38580.209 
  820000   0.79896122    124.24133     41.39091    38580.209 
  830000   0.79805567    125.68168    41.741475    38580.209 
  840000   0.79949784    126.98234    42.098608    38580.209 
  850000   0.80272553    128.32924    42.461521    38580.209 
  860000   0.79568641    129.70389    42.806245    38580.209 
  870000   0.79704275    131.09492    43.165595    38580.209 
  880000   0.80563888     132.3953     43.53369    38580.209 
  890000   0.79549811      133.697    43.878119    38580.209 
  900000   0.80425172     135.0922    44.233248    38580.209 
  910000   0.79859432    136.38679    44.591342    38580.209 
  920000   0.80741153    137.77663    44.963183    38580.209 
  930000   0.80073431     139.1386    45.291856    38580.209 
  940000    0.8005504    140.43854     45.66329    38580.209 
  950000   0.79624927    141.79451    46.021283    38580.209 
  960000   0.80263745    143.18111    46.367701    38580.209 
  970000   0.79802001    144.46456    46.708583    38580.209 
  980000   0.79553762    145.82685    47.052383    38580.209 
  990000   0.80125676    147.14697    47.428487    38580.209 
 1000000   0.79848059    148.50102    47.764906    38580.209 
 1010000   0.79939068    149.81233    48.134554    38580.209 
 1020000   0.79605957     151.1326     48.47956    38580.209 
 1030000   0.79728069    152.52392    48.833258    38580.209 
 1040000   0.79777929    153.87894    49.201475    38580.209 
 1050000   0.80146834    155.14027    49.553465    38580.209 
 1060000   0.80620344    156.48937    49.906717    38580.209 
 1070000   0.79006903    157.85975    50.226043    38580.209 
 1080000   0.80513589    159.21762    50.610295    38580.209 
 1090000   0.79262167     160.5148    50.947624    38580.209 
 1100000   0.80162725    161.78878     51.29951    38580.209 
 1110000   0.80383745    163.24716    51.664099    38580.209 
 1120000   0.79464553    164.56482     52.00063    38580.209 
 1130000   0.79999676     165.8617    52.363853    38580.209 
 1140000   0.80091078     167.1397    52.721386    38580.209 
 1150000   0.80111348    168.51944    53.068132    38580.209 
 1160000   0.80066603    169.76589     53.41072    38580.209 
 1170000   0.80371961    171.16824    53.772477    38580.209 
 1180000   0.80358508    172.55083    54.127334    38580.209 
 1190000   0.79392883    173.83795    54.459033    38580.209 
 1200000   0.79819604    175.13359     54.81361    38580.209 
 1210000   0.80146199    176.45614    55.173623    38580.209 
 1220000   0.79887673    177.81574    55.513542    38580.209 
 1230000   0.79292202    179.19767    55.850004    38580.209 
 1240000   0.79933791    180.46018    56.213576    38580.209 
 1250000   0.80481325    181.79848    56.578525    38580.209 
 1260000   0.79717288    183.16194    56.915303    38580.209 
 1270000   0.79703008    184.49495    57.274757    38580.209 
 1280000   0.79982614      185.829     57.62278    38580.209 
 1290000   0.80079744    187.02201    57.969238    38580.209 
 1300000   0.79977401    188.46239    58.330676    38580.209 
 1310000   0.80497582    189.79191    58.683319    38580.209 
 1320000   0.80301785    191.12644    59.006477    38580.209 
 1330000    0.7987188    192.37002    59.367449    38580.209 
 1340000   0.79933577     193.6115    59.701141    38580.209 
 1350000   0.80263703    194.90066    60.067071    38580.209 
 1360000   0.80037774    196.35248    60.406166    38580.209 
 1370000   0.79934558    197.55131    60.761672    38580.209 
 1380000   0.80069238    198.91354     61.12134    38580.209 
 1390000   0.80266436    200.26481    61.465575    38580.209 
 1400000   0.79139937    201.53739    61.786036    38580.209 
 1410000   0.80444662    202.81041       62.153    38580.209 
 1420000   0.80206955    204.25068    62.508449    38580.209 
 1430000   0.79325646    205.51193    62.844414    38580.209 
 1440000   0.79972171    206.85647    63.210882    38580.209 
 1450000    0.7998901    208.27238    63.548713    38580.209 
 1460000   0.79830592    209.47378    63.895572    38580.209 
 1470000   0.80597724    210.77715    64.242434    38580.209 
 1480000   0.79822074    212.15727    64.584595    38580.209 
 1490000   0.80253112    213.43097    64.944834    38580.209 
 1500000   0.80538889    214.80735    65.295077    38580.209 
 1510000   0.79394916    216.00194    65.618849    38580.209 
 1520000   0.80345525    217.40082      65.9757    38580.209 
 1530000   0.80443076    218.66533    66.314143    38580.209 
 1540000   0.80218132    220.05678    66.678397    38580.209 
 1550000   0.79887457    221.30588    67.018911    38580.209 
 1560000   0.80150204    222.68227     67.38119    38580.209 
 1570000   0.79489907    224.02972    67.706068    38580.209 
 1580000   0.79858458    225.28984     68.04956    38580.209 
 1590000    0.7987389    226.51447    68.402906    38580.209 
 1600000   0.80397049    227.87645     68.76057    38580.209 
 1610000   0.80625159    229.07818    69.104218    38580.209 
 1620000   0.79883771    230.48945    69.440943    38580.209 
 1630000   0.79780815    231.75861    69.782651    38580.209 
 1640000   0.80104076    233.08912    70.125066    38580.209 
 1650000   0.79644761    234.31493    70.477187    38580.209 
 1660000    0.7974409    235.78991    70.813123    38580.209 
 1670000   0.80258413    237.04189    71.179209    38580.209 
 1680000   0.80106916    238.29062    71.520323    38580.209 
 1690000   0.79809148    239.57739    71.849239    38580.209 
 1700000   0.79428342     240.9176    72.198164    38580.209 
 1710000   0.80083444    242.18803    72.544065    38580.209 
 1720000   0.79730258    243.61581    72.896327    38580.209 
 1730000   0.79390159    244.83187    73.218186    38580.209 
 1740000   0.80085859    246.11518    73.583111    38580.209 
 1750000   0.80253807    247.40883    73.935845    38580.209 
 1760000   0.79949954    248.80172    74.268229    38580.209 
 1770000   0.80648687    250.09616    74.629938    38580.209 
 1780000   0.80817008    251.41417    74.974238    38580.209 
 1790000   0.80302595    252.73469    75.306992    38580.209 
 1800000   0.80332576    253.95512    75.660461    38580.209 
 1810000   0.80356504    255.19415    75.994177    38580.209 
 1820000   0.79668884     256.6047     76.33606    38580.209 
 1830000   0.80057496     257.8176    76.684843    38580.209 
 1840000   0.79937402    259.18393    77.029056    38580.209 
 1850000   0.79302812    260.50426    77.365052    38580.209 
 1860000   0.79975776    261.72273    77.716434    38580.209 
 1870000   0.80308769    263.10853    78.069911    38580.209 
 1880000   0.79695927    264.29798    78.402883    38580.209 
 1890000   0.79713467    265.51795    78.748794    38580.209 
 1900000     0.801654    266.96529    79.102423    38580.209 
 1910000   0.80113072    268.27704    79.435502    38580.209 
 1920000   0.79407735    269.52841    79.771813    38580.209 
 1930000     0.790878    270.94732    80.108833    38580.209 
 1940000   0.80111596    272.06067    80.468343    38580.209 
 1950000   0.79658166    273.36959    80.800615    38580.209 
 1960000   0.79778644    274.75694    81.140867    38580.209 
 1970000   0.80110265    275.99938    81.489582    38580.209 
 1980000   0.80099905    277.30183    81.843216    38580.209 
 1990000   0.80174356    278.54975    82.185833    38580.209 
 2000000   0.79310462    279.81323    82.518493    38580.209 
Loop time of 1025.59 on 216 procs for 2000000 steps with 27950 atoms

Performance: 842444.835 tau/day, 1950.104 timesteps/s
99.9% CPU use with 216 MPI tasks x 1 OpenMP threads

MPI task timing breakdown:
Section |  min time  |  avg time  |  max time  |%varavg| %total
---------------------------------------------------------------
Pair    | 129.34     | 134.85     | 155.28     |  29.8 | 13.15
Bond    | 0.50635    | 2.8615     | 4.6665     |  53.7 |  0.28
Neigh   | 69.213     | 76.925     | 83.305     |  27.3 |  7.50
Comm    | 253.53     | 299.91     | 338.85     |  89.1 | 29.24
Output  | 0.6148     | 0.62004    | 0.64097    |   0.3 |  0.06
Modify  | 307.06     | 372.26     | 444.64     | 146.4 | 36.30
Other   |            | 138.2      |            |       | 13.47

Nlocal:    129.398 ave 158 max 115 min
Histogram: 7 16 51 86 45 7 2 1 0 1
Nghost:    403.681 ave 431 max 375 min
Histogram: 2 8 12 41 28 53 43 18 9 2
Neighs:    885.986 ave 1200 max 766 min
Histogram: 8 35 93 62 11 4 2 0 0 1

Total # of neighbors = 191373
Ave neighs/atom = 6.84698
Ave special neighs/atom = 0.62254
Neighbor list builds = 237336
Dangerous builds = 0
System init for write_data ...
Neighbor list info ...
  update every 1 steps, delay 0 steps, check yes
  max neighbors/atom: 2000, page size: 100000
  master list distance cutoff = 2.8
  ghost atom cutoff = 2.8
  binsize = 1.4, bins = 25 25 25
  1 neighbor lists, perpetual/occasional/extra = 1 0 0
  (1) pair lj/cut, perpetual
      attributes: half, newton on
      pair build: half/bin/newton
      stencil: half/bin/3d/newton
      bin: standard
Setting up Verlet run ...
  Unit style    : lj
  Current step  : 2000000
  Time step     : 0.005
Per MPI rank memory allocation (min/avg/max) = 13.04 | 14.5 | 15.16 Mbytes
Step Temp Press TotEng Volume 
 2000000   0.79310462     11.01358    5.5977906    38580.209 
 2010000   0.80208448  -0.10228951    2.5702493    34930.038 
 2020000   0.79947051  -0.11647534    2.5642366     34878.93 
 2030000   0.80388586  -0.10663731    2.5565303    34837.955 
 2040000   0.80543093  -0.10321244    2.5620546    34828.962 
 2050000   0.80692526   -0.1069258    2.5693417    34815.979 
 2060000   0.80183839  -0.10259834    2.5674365    34893.332 
 2070000   0.79626453   -0.1111907    2.5578896    34890.534 
 2080000   0.80345135 -0.097964427    2.5575601    34794.722 
 2090000    0.7955781  -0.10678291    2.5278912    34684.406 
 2100000   0.79650825  -0.11575734    2.5312271    34721.823 
 2110000    0.7981039  -0.10381708    2.5344539    34751.403 
 2120000   0.79620214  -0.10795742    2.5410976    34774.741 
 2130000   0.79660757  -0.11155334     2.550791    34824.463 
 2140000   0.79720811  -0.10897088     2.562216    34900.292 
 2150000   0.79939085  -0.10877668    2.5605463    34923.641 
 2160000   0.79383583  -0.10315542    2.5430694    34832.528 
 2170000   0.79853596  -0.11304772    2.5515147     34826.15 
 2180000    0.8015578  -0.11122798    2.5510096    34784.352 
 2190000   0.79956467  -0.10857554    2.5599395    34897.522 
 2200000     0.807058  -0.11257719    2.5551045    34787.465 
 2210000   0.80223974  -0.10226305    2.5574397    34840.915 
 2220000    0.7972029  -0.10292716    2.5392141    34775.398 
 2230000   0.80208782  -0.11191124    2.5586777     34829.15 
 2240000   0.79405904  -0.11807941    2.5565915    34877.706 
 2250000   0.79811158  -0.11047953    2.5437412    34794.946 
 2260000    0.7993412  -0.10994673    2.5517912    34830.199 
 2270000   0.79637297 -0.098688268    2.5423393    34771.411 
 2280000   0.80086855   -0.1079354    2.5419486    34770.294 
 2290000   0.79637441  -0.11269533     2.552341    34863.432 
 2300000    0.8071212  -0.10646951    2.5696996    34838.628 
 2310000   0.79922326   -0.1228071     2.549155    34820.416 
 2320000   0.80183265  -0.10650443    2.5481043    34750.224 
 2330000   0.79760873  -0.10193958    2.5561443    34829.857 
 2340000   0.80518089  -0.11154346    2.5593979    34816.825 
 2350000   0.79583953  -0.11204112    2.5431073    34809.051 
 2360000   0.79962438  -0.10961923    2.5503198    34791.481 
 2370000   0.79710847  -0.11778831    2.5484625    34838.637 
 2380000   0.80049129  -0.10670561    2.5564513     34804.93 
 2390000   0.80137327  -0.10307246    2.5510562    34803.885 
 2400000   0.79820967  -0.11668605    2.5318425    34703.668 
 2410000   0.79801195  -0.10100293    2.5586786    34844.799 
 2420000   0.80092198  -0.10764457    2.5649105    34833.306 
 2430000   0.79983632  -0.11090513     2.552184    34820.435 
 2440000   0.80342019  -0.10624008    2.5472987     34758.01 
 2450000   0.80150312  -0.10987044    2.5456988     34789.35 
 2460000   0.79768094  -0.11069211      2.52333    34683.551 
 2470000   0.79644717   -0.1088583     2.557099    34882.533 
 2480000   0.80182705  -0.11310776    2.5414375     34743.79 
 2490000   0.79905074  -0.11186911    2.5458691    34797.226 
 2500000   0.79378175  -0.10623792    2.5481503    34783.238 
 2510000   0.80297914 -0.097580062    2.5591712    34800.388 
 2520000    0.8052432  -0.10677006    2.5521599    34756.544 
 2530000   0.80303777   -0.1042967    2.5381042    34704.037 
 2540000   0.80355389  -0.10843481    2.5485936    34783.642 
 2550000   0.79767489  -0.10609134    2.5579623    34845.058 
 2560000   0.80742499  -0.10664021    2.5618567    34806.519 
 2570000    0.7970162  -0.10759052    2.5510294     34789.84 
 2580000   0.79832754   -0.1076254    2.5436833    34808.012 
 2590000   0.80313437  -0.11256135    2.5602403    34844.977 
 2600000   0.79953226  -0.10859934    2.5451968    34792.531 
 2610000   0.79745329  -0.10689904    2.5434184    34779.037 
 2620000   0.79696715  -0.10851261    2.5575836    34821.907 
 2630000   0.80020192  -0.10637216     2.554362    34847.432 
 2640000   0.80174691  -0.10899729    2.5790551    34951.014 
 2650000   0.79918865  -0.11612674    2.5413865    34737.408 
 2660000   0.80366634  -0.10977039    2.5403216      34674.4 
 2670000   0.80228791  -0.10568614    2.5431293    34718.811 
 2680000   0.80090617   -0.1144206    2.5469335    34775.802 
 2690000   0.79934631  -0.10696443     2.541874    34695.185 
 2700000   0.79842326  -0.11069696    2.5269418    34666.481 
 2710000   0.79755449  -0.10917073     2.537621    34722.367 
 2720000   0.79657433  -0.10549394    2.5299904    34714.925 
 2730000   0.79885412  -0.10466128    2.5361321    34723.412 
 2740000    0.7971753  -0.10937068    2.5307385    34690.524 
 2750000   0.79809392  -0.11335545    2.5367086    34754.798 
 2760000   0.80039117  -0.11440935    2.5293721    34680.225 
 2770000   0.80097951  -0.10983003    2.5453804    34763.756 
 2780000   0.80105406   -0.1104394     2.535763    34709.887 
 2790000   0.80107565  -0.10933977    2.5461765    34756.043 
 2800000   0.80063967  -0.10951371    2.5397633    34718.573 
 2810000   0.80631874  -0.10633773    2.5406476    34682.326 
 2820000   0.79711057  -0.10502209    2.5362073    34753.301 
 2830000   0.80216039  -0.10816117    2.5286922    34650.933 
 2840000   0.80042673  -0.10721719    2.5487098    34750.179 
 2850000   0.79981286  -0.10735344     2.538271    34718.505 
 2860000   0.80877353  -0.10152582    2.5659527     34818.14 
 2870000    0.8060486  -0.11311134    2.5600456    34793.515 
 2880000   0.80036554  -0.10669171    2.5512285    34771.615 
 2890000   0.80271053   -0.1007205     2.537467    34703.008 
 2900000   0.80089363  -0.11079253    2.5421957    34765.761 
 2910000   0.79626485   -0.1090787    2.5195843    34650.744 
 2920000   0.79790331 -0.094389313    2.5356365     34713.47 
 2930000   0.79992759  -0.10410567    2.5224617    34653.128 
 2940000   0.80100025  -0.10430699    2.5461737    34719.608 
 2950000   0.80085548 -0.098787453    2.5374345    34709.363 
 2960000   0.79838828   -0.1094148    2.5280366    34726.464 
 2970000   0.79811301   -0.1085874    2.5208076    34647.088 
 2980000   0.80055533   -0.1110321    2.5461722    34772.466 
 2990000   0.80470022  -0.11608177    2.5408998    34713.127 
 3000000   0.79709154  -0.10614961    2.5127729    34613.164 
 3010000   0.79866284  -0.10449242    2.5320624    34693.732 
 3020000   0.79832067  -0.10744182    2.5312703    34671.616 
 3030000    0.7936704  -0.11549732    2.5101117    34589.203 
 3040000   0.80640641  -0.10647007    2.5523066    34742.083 
 3050000   0.79811885  -0.11764239    2.5352716    34712.544 
 3060000    0.7992624  -0.11760003    2.5306118    34722.431 
 3070000    0.8078293  -0.10055921    2.5420272    34665.955 
 3080000   0.80763181  -0.11172378    2.5512365    34717.182 
 3090000   0.80192593  -0.10906256    2.5294392    34660.184 
 3100000   0.80209815 -0.097383323    2.5401973    34735.265 
 3110000   0.80582975  -0.10495221    2.5504217    34780.988 
 3120000   0.80010238  -0.11022908    2.5337427    34703.272 
 3130000   0.80323058  -0.11102492     2.541447    34708.019 
 3140000   0.79705383   -0.1064815    2.5228254    34664.417 
 3150000   0.79632788  -0.11302257    2.5273888    34640.628 
 3160000   0.80397926  -0.11113125    2.5306025    34628.392 
 3170000   0.79985373  -0.11305002    2.5426737    34765.808 
 3180000   0.79946768  -0.10375382    2.5410886     34745.94 
 3190000   0.79942557  -0.10423972    2.5432269    34767.271 
 3200000   0.80095271  -0.11086148    2.5288067    34668.909 
 3210000   0.79873173  -0.10241498    2.5468805    34763.651 
 3220000   0.79852927  -0.11197035    2.5482207     34807.01 
 3230000   0.79544593  -0.10955061    2.5390008    34772.393 
 3240000   0.79513985  -0.10964343    2.5183157    34646.806 
 3250000   0.80221997  -0.10928095    2.5287026    34684.316 
 3260000   0.80739257  -0.11058931    2.5492997    34736.363 
 3270000   0.80514189  -0.11283085    2.5331901    34688.501 
 3280000   0.80168997  -0.11040364    2.5410343    34708.114 
 3290000   0.79858991  -0.10429069    2.5301197    34665.184 
 3300000   0.79757567  -0.10838253    2.5266901    34672.476 
 3310000   0.79617195  -0.10588369    2.5260401    34675.247 
 3320000   0.80541884  -0.10186958    2.5197336    34605.075 
 3330000   0.79612974  -0.10810243     2.521682    34705.197 
 3340000    0.8029711  -0.10571307    2.5292903    34652.853 
 3350000   0.80103367   -0.1061587    2.5381011    34751.358 
 3360000   0.80167948  -0.10774366    2.5362219    34724.434 
 3370000   0.80150644  -0.11083738     2.514965    34627.715 
 3380000    0.7985219  -0.10512419    2.5231801    34671.535 
 3390000   0.79976496  -0.10764825    2.5394686    34690.289 
 3400000   0.80050338  -0.10249832    2.5145347    34585.387 
 3410000   0.80380316  -0.10945956    2.5460149    34739.455 
 3420000   0.80325086  -0.11177462    2.5615896    34840.654 
 3430000   0.79621105  -0.11226427    2.5278549    34712.736 
 3440000   0.79804669   -0.1112466    2.5248674    34655.102 
 3450000   0.80149889  -0.10963972    2.5514958    34778.834 
 3460000    0.7946902  -0.11007476    2.5314518     34718.47 
 3470000   0.80124392 -0.099816077    2.5489602    34820.261 
 3480000   0.80554275  -0.10316697    2.5443888     34766.36 
 3490000    0.7923138  -0.10732525    2.5310696    34747.781 
 3500000   0.80169753  -0.10772021    2.5431648    34757.704 
 3510000   0.80169775   -0.1102352    2.5321068    34706.531 
 3520000   0.80066767 -0.099593185    2.5468018    34797.869 
 3530000   0.79902194  -0.12087625    2.5396254    34759.247 
 3540000   0.80092823  -0.10503835    2.5444153    34737.968 
 3550000     0.795919  -0.11039027    2.5178893    34684.304 
 3560000   0.79769378  -0.10505369    2.5275886    34663.743 
 3570000   0.80353443  -0.10454915    2.5365597    34716.664 
 3580000   0.80496851  -0.10396598    2.5198249    34611.957 
 3590000   0.80081753  -0.10479094    2.5207801    34636.139 
 3600000   0.80286507  -0.11007894    2.5384492    34706.116 
 3610000   0.80269446  -0.11418857    2.5255059    34654.476 
 3620000   0.79802632   -0.1085076    2.5094527    34585.714 
 3630000   0.79766348  -0.11139716    2.5378172     34721.58 
 3640000   0.80029489  -0.10438886     2.524957    34656.629 
 3650000   0.80263098  -0.10796035    2.5363873    34709.909 
 3660000   0.79491591  -0.11391613    2.5314726     34754.18 
 3670000   0.79870853   -0.1121398    2.5326003    34682.126 
 3680000   0.79781652  -0.11067426    2.5247105    34696.254 
 3690000   0.80426733  -0.11419042    2.5359183    34710.139 
 3700000   0.80030486  -0.11301261     2.527472    34651.514 
 3710000   0.80590284  -0.10702766    2.5483653    34743.664 
 3720000    0.7991525  -0.10475484    2.5262999    34647.629 
 3730000   0.80514029    -0.104692    2.5524356    34775.549 
 3740000   0.80161735  -0.10944511    2.5357754    34705.683 
 3750000   0.80350316  -0.11124325    2.5306482    34654.765 
 3760000   0.80546117  -0.10807765    2.5459697    34757.121 
 3770000   0.80076454  -0.10574101    2.5319847    34646.495 
 3780000   0.79160522  -0.11345204    2.5125931    34678.952 
 3790000   0.80155935  -0.10680812    2.5500924    34768.609 
 3800000   0.79547464  -0.11076609    2.5195243    34671.039 
 3810000     0.797723  -0.10524947    2.5180129    34587.278 
 3820000   0.79908189  -0.10358514    2.5282196    34698.118 
 3830000   0.80035246 -0.097192667    2.5222375    34667.954 
 3840000   0.80067644   -0.1035319    2.5345432    34727.154 
 3850000   0.80171392  -0.10608703    2.5285902    34700.258 
 3860000   0.79974326  -0.11274843    2.5265408    34661.347 
 3870000   0.80034136  -0.10938503    2.5249672    34643.544 
 3880000   0.80244401  -0.11511547     2.532905    34675.538 
 3890000   0.79953029  -0.11068606    2.5223678    34686.316 
 3900000   0.79921687  -0.10967161    2.5154453    34616.146 
 3910000   0.79956651   -0.1094781    2.5187784    34581.601 
 3920000    0.8042215  -0.11257841    2.5183371    34597.827 
 3930000    0.7961305  -0.10439868    2.5033748    34576.628 
 3940000   0.80129512 -0.099709741    2.5262468    34686.017 
 3950000   0.79512617  -0.10816356    2.5084469    34622.953 
 3960000   0.80374581  -0.11165471    2.5303143    34630.705 
 3970000   0.79845445  -0.10597826    2.5297976    34688.945 
 3980000   0.79927991  -0.11802211    2.5158415    34602.568 
 3990000   0.79281921  -0.10114803    2.5166873    34714.935 
 4000000   0.79537323  -0.10499354    2.5178074    34678.164 
 4010000   0.80304683   -0.1110657    2.5325849    34680.968 
 4020000   0.80045208  -0.11419399    2.5280418    34651.582 
 4030000   0.79650213  -0.11494464    2.5175154    34627.516 
 4040000   0.79434193  -0.11275052    2.4970554    34515.281 
 4050000   0.80424154   -0.1092733      2.53134    34688.926 
 4060000   0.79984242  -0.11350351    2.5233735     34620.39 
 4070000   0.80179842  -0.11543146    2.5313441    34696.661 
 4080000   0.80104925  -0.11434913    2.5205662    34609.253 
 4090000    0.7992375  -0.10957339     2.535851    34716.852 
 4100000   0.79969919  -0.10770672    2.5190838    34631.666 
 4110000   0.79831672  -0.10803171    2.5133726    34644.547 
 4120000   0.79584782  -0.10253534    2.5183419    34641.915 
 4130000   0.79643469  -0.11009648    2.5170937    34657.571 
 4140000   0.80196465  -0.10594877      2.52338    34585.462 
 4150000   0.80315517  -0.11027378    2.5290631    34666.316 
 4160000   0.80038482  -0.11205109    2.5036461    34496.406 
 4170000   0.79865828  -0.11816089    2.5276892    34659.499 
 4180000   0.80423303  -0.10829885    2.5250212    34630.112 
 4190000   0.81280904  -0.11103307    2.5384716    34599.413 
 4200000   0.80243409  -0.10096463    2.5258239     34649.67 
 4210000   0.79513856  -0.10929591    2.5055313    34569.861 
 4220000   0.79844499  -0.11122456    2.5206803    34608.927 
 4230000   0.80160792   -0.1168327    2.5162867    34579.739 
 4240000   0.79868315  -0.11256393    2.5231809    34633.233 
 4250000   0.79622965  -0.10667459    2.4953857    34496.432 
 4260000   0.80122579  -0.10994222    2.5177955     34657.68 
 4270000   0.80061503  -0.10718204    2.5115094    34617.819 
 4280000   0.80037302  -0.10644072    2.5307639    34671.704 
 4290000   0.79964975  -0.10448947    2.5345369    34704.611 
 4300000   0.80340237  -0.10764646    2.5424619    34704.041 
 4310000   0.79721304  -0.10671616    2.5061983    34564.854 
 4320000   0.80007989  -0.10747775    2.5483513    34778.513 
 4330000   0.79576801  -0.11245011    2.5116398    34593.667 
 4340000   0.80252538  -0.10475752    2.5119898    34533.031 
 4350000   0.79232025  -0.10782751    2.5029489    34622.896 
 4360000   0.79956106  -0.10983741    2.5244639    34634.973 
 4370000   0.80347834 -0.098257219     2.522345    34615.537 
 4380000   0.80413829  -0.11340159     2.526898    34637.416 
 4390000   0.80281027  -0.10957424    2.5244479    34618.562 
 4400000   0.79484297  -0.10620946    2.5185244    34653.804 
 4410000   0.80923505  -0.11412794    2.5380221    34644.833 
 4420000   0.80019526  -0.11327901    2.5370825    34719.098 
 4430000   0.79759729  -0.10970026    2.5069019    34566.577 
 4440000   0.80490676  -0.11373992    2.5366442    34692.261 
 4450000   0.79414606  -0.11061774    2.5089421     34669.33 
 4460000   0.80759832  -0.11010804    2.5100326    34512.791 
 4470000   0.80490489  -0.10963817    2.5401181    34711.534 
 4480000   0.79950194  -0.11532279    2.5043402    34572.854 
 4490000   0.79840902  -0.10712564    2.5174411    34647.427 
 4500000   0.80015542  -0.10314313    2.5180388    34607.622 
 4510000   0.80113986  -0.11142147    2.5367789    34701.456 
 4520000    0.8042103  -0.10704958    2.5397345    34695.225 
 4530000   0.79738302  -0.10987935    2.5160757    34679.383 
 4540000   0.79578138  -0.10883859    2.5048098    34543.713 
 4550000   0.79944801  -0.11111406    2.5225875    34607.972 
 4560000   0.80273816  -0.10874734    2.5186452    34593.847 
 4570000   0.79645477  -0.11431661    2.5276452    34689.178 
 4580000   0.79752934  -0.10682874    2.5117927    34596.338 
 4590000   0.81146582  -0.10641556    2.5405278     34610.04 
 4600000   0.79783765  -0.10339385    2.5187317     34613.31 
 4610000   0.80253206   -0.1020368    2.5456486    34720.634 
 4620000   0.80321294  -0.11878392     2.531893    34681.246 
 4630000   0.79891567  -0.10421571    2.5208509     34661.06 
 4640000   0.80585269     -0.10634    2.5306311     34644.19 
 4650000   0.79485287  -0.11237647    2.5108676    34612.809 
 4660000   0.80493042  -0.11665401     2.527842    34670.123 
 4670000   0.80002004  -0.11117836    2.5070006    34559.434 
 4680000    0.8076299  -0.11186844    2.5263979    34567.096 
 4690000   0.79464956  -0.10998733    2.5070416    34582.832 
 4700000   0.80078232  -0.10610154    2.5354651    34700.977 
 4710000   0.80333164  -0.10314432    2.5225264    34591.425 
 4720000   0.80448364  -0.11197514    2.5473483     34716.65 
 4730000   0.79819173   -0.1121539    2.5129486    34592.616 
 4740000   0.79223336  -0.11457344    2.4887076    34512.534 
 4750000   0.78921501  -0.11572183    2.5160549    34672.326 
 4760000   0.79760662   -0.1076293    2.5096052    34586.729 
 4770000   0.80122729  -0.10949858    2.5375215    34697.717 
 4780000   0.79822527  -0.10871868    2.5297362     34670.64 
 4790000   0.79959225  -0.11109878    2.5188528    34636.428 
 4800000   0.80000434   -0.1118781    2.5197012    34596.735 
 4810000   0.79728011   -0.1096301    2.5111752    34618.669 
 4820000    0.8004494  -0.10304293      2.50837    34561.396 
 4830000   0.79858801  -0.10918307    2.5246871    34634.673 
 4840000   0.80338949  -0.11192368    2.5173572    34566.026 
 4850000   0.80219443   -0.1119582    2.5236541     34654.28 
 4860000   0.79604003   -0.1195362    2.5052054    34553.261 
 4870000   0.80042348  -0.10565401     2.517619    34656.779 
 4880000   0.80778389  -0.11665827    2.5214106    34578.761 
 4890000   0.79219888  -0.10888914    2.5121325    34650.536 
 4900000   0.79609213  -0.10686691    2.5156646    34650.147 
 4910000   0.80099334  -0.11185393    2.5180738    34610.099 
 4920000   0.79865206  -0.11087563    2.5225193    34635.531 
 4930000   0.80535506  -0.10584396    2.5370354    34661.481 
 4940000   0.80130807  -0.10800472    2.5139362    34554.994 
 4950000   0.79783529  -0.11040592    2.5074279    34531.284 
 4960000   0.80282345  -0.12217004    2.5308156    34675.986 
 4970000   0.80359343  -0.11132358    2.5245535    34590.702 
 4980000   0.80190144    -0.112947    2.5421826    34752.162 
 4990000   0.80016949  -0.10984739    2.5140867    34585.584 
 5000000    0.8035567  -0.11228912    2.5467858    34730.959 
 5010000   0.79186587  -0.10975797    2.4983238    34587.618 
 5020000   0.80550748  -0.12007882    2.5135805    34524.494 
 5030000   0.79187186  -0.10839469    2.5088023    34658.756 
 5040000   0.79079822  -0.11111775     2.495353    34544.738 
 5050000   0.79615881  -0.10659972    2.5013545    34553.319 
 5060000   0.80412036  -0.11723551    2.5204111    34675.782 
 5070000   0.79428358  -0.10544542    2.5042186    34622.457 
 5080000   0.80359845  -0.10587205    2.5218686     34605.75 
 5090000   0.79763064  -0.11636168    2.5189144    34673.378 
 5100000   0.80214046  -0.10765605    2.5325357     34662.17 
 5110000   0.79923384  -0.11150451    2.5070228    34570.849 
 5120000   0.80329854  -0.11195587    2.5343833    34653.734 
 5130000   0.79624226  -0.11251002    2.5223446    34681.204 
 5140000   0.79600011  -0.10661264    2.4952422    34528.201 
 5150000   0.79498088  -0.10713028    2.5193655    34654.868 
 5160000   0.80294458  -0.10864047    2.5147835    34590.685 
 5170000    0.7985668  -0.11267253    2.5213899    34620.274 
 5180000   0.80068787   -0.1022036    2.4935457    34463.536 
 5190000    0.7931516  -0.11191903    2.4993244    34584.382 
 5200000   0.79524449  -0.11396008    2.5086497    34619.647 
 5210000   0.80194116  -0.10949186    2.5157895    34649.416 
 5220000   0.79694059  -0.10589076    2.5279435    34686.529 
 5230000    0.7988741  -0.10448835    2.5127675    34581.703 
 5240000   0.80275625  -0.11229405    2.5000978    34504.098 
 5250000   0.80012448  -0.10747755    2.5361095    34749.485 
 5260000   0.80080497  -0.10876747    2.5115848    34587.162 
 5270000   0.80049544  -0.11769747    2.5105436     34604.71 
 5280000   0.80100124  -0.10795329    2.5267477    34646.907 
 5290000   0.80338662  -0.11508083    2.5264921    34643.607 
 5300000   0.79116714  -0.12370243      2.50148    34614.545 
 5310000   0.80399594  -0.11759767    2.5260788     34667.73 
 5320000   0.80227619  -0.10875953    2.5126695    34626.229 
 5330000   0.80294221  -0.10898537    2.5201984     34604.22 
 5340000   0.79809108  -0.11248497    2.5104563    34565.516 
 5350000   0.80009589  -0.11567458    2.5225749    34639.526 
 5360000   0.79424574  -0.11217857    2.5094164    34608.198 
 5370000   0.79921601  -0.10711862    2.5278192    34675.433 
 5380000   0.79615243  -0.11161907    2.5050894    34622.768 
 5390000   0.79719665  -0.11093332    2.5238082    34689.017 
 5400000   0.80181756  -0.10658593    2.5272912    34688.041 
 5410000   0.80038538  -0.12174832    2.5109259    34596.288 
 5420000   0.80019411  -0.10606345    2.5242407     34634.61 
 5430000   0.80062871  -0.10605759    2.5345434    34709.288 
 5440000   0.80236138  -0.11124157     2.511609    34556.755 
 5450000   0.79758318  -0.10194847    2.5191335    34643.625 
 5460000   0.80527815  -0.10642425    2.5249602    34644.478 
 5470000   0.79883471   -0.1080095    2.5023425    34542.187 
 5480000    0.7990903  -0.11716635     2.516983    34636.139 
 5490000   0.80021536  -0.10907852    2.5262158    34648.837 
 5500000   0.80108072  -0.10868021    2.5286455     34665.21 
 5510000   0.79901268  -0.11696604    2.5237997    34650.245 
 5520000   0.80081475  -0.10185603    2.5171678    34613.821 
 5530000    0.8033985  -0.10677137    2.5220359    34590.627 
 5540000    0.8010732  -0.10814442    2.5092029    34554.206 
 5550000    0.8104408  -0.11911511    2.5385032    34655.577 
 5560000   0.80195288  -0.11229118     2.537917    34718.065 
 5570000   0.79401065  -0.11910869    2.5066613    34560.953 
 5580000   0.80399286  -0.10654765     2.521906    34642.167 
 5590000   0.79300844  -0.11877551     2.505227    34612.001 
 5600000   0.80101267  -0.10325672    2.5191009    34642.944 
 5610000   0.79480329  -0.10586138    2.5265001     34706.41 
 5620000   0.79437031  -0.10961005     2.493013    34525.216 
 5630000   0.79628365  -0.10225952    2.5348701    34726.412 
 5640000   0.80916378  -0.11684942    2.5290008    34593.396 
 5650000   0.79538768  -0.11541548    2.4993574    34567.091 
 5660000   0.80070022   -0.1148542    2.5245316    34646.328 
 5670000   0.79960755  -0.11513095    2.5126762    34583.305 
 5680000   0.80185641  -0.10795458     2.511637    34588.032 
 5690000   0.79207758  -0.10752202    2.5051203    34627.252 
 5700000   0.79970776  -0.10618243    2.5162409    34626.247 
 5710000   0.80376957  -0.10796588    2.5135629    34535.595 
 5720000   0.79535544  -0.11631041    2.4989006    34545.457 
 5730000    0.8019065   -0.1116227    2.5190135    34633.296 
 5740000   0.79986937  -0.11341277    2.5083833    34551.908 
 5750000   0.80522241  -0.10388425    2.5182584    34575.606 
 5760000   0.78973947  -0.10313543    2.5041508    34619.391 
 5770000   0.80204285  -0.11080596    2.5260077    34638.948 
 5780000   0.79752069  -0.10947375    2.4948824    34500.414 
 5790000   0.79914871  -0.12235775    2.5106267    34570.215 
 5800000   0.79660585  -0.11201454    2.5135024    34583.763 
 5810000   0.79636072   -0.1189754     2.498108    34522.299 
 5820000    0.8055942  -0.11393503     2.524016    34617.877 
 5830000    0.7977452  -0.10736727    2.5143528    34603.053 
 5840000    0.8067907  -0.10354262    2.5175568    34567.321 
 5850000   0.79566895  -0.10954106    2.5071538    34619.775 
 5860000   0.79801031  -0.10569446    2.4994817    34522.334 
 5870000   0.80301714  -0.10800331    2.5094076    34579.808 
 5880000   0.79807832  -0.11497544      2.52103    34643.877 
 5890000   0.80431015  -0.10855763    2.5379287    34687.265 
 5900000   0.79838833   -0.1115441    2.5163649    34622.237 
 5910000   0.80028229  -0.10645985    2.5304253    34687.748 
 5920000   0.80363349  -0.10844809    2.5261175    34613.126 
 5930000   0.79626394  -0.11580566    2.5058023    34566.569 
 5940000   0.80304331  -0.10958886    2.5302342    34694.011 
 5950000    0.8026121  -0.11140512    2.5228643    34646.253 
 5960000   0.80119783  -0.10642105    2.5130219    34593.817 
 5970000   0.80368404   -0.1133133    2.5159795    34560.858 
 5980000   0.80357141  -0.11275739    2.5090272    34564.698 
 5990000   0.80423793  -0.11320454    2.5111809     34585.56 
 6000000   0.80908862  -0.11227231    2.5194921    34559.375 
 6010000   0.80314612  -0.11446188    2.5086904    34595.995 
 6020000   0.80032346  -0.11172727    2.5216822    34643.488 
 6030000   0.79825263  -0.10422971    2.5063284    34582.363 
 6040000   0.80399572  -0.10315969    2.5093407    34551.515 
 6050000   0.79606081  -0.11870361    2.5080897    34625.979 
 6060000   0.80326164  -0.11212606    2.5167876    34576.132 
 6070000   0.79543244  -0.10685064    2.5128793     34631.35 
 6080000   0.79492251  -0.10881561    2.5071498    34602.559 
 6090000   0.79210011  -0.11208876    2.5026052    34592.842 
 6100000   0.80303033  -0.11001722    2.5142402    34543.937 
 6110000   0.80575655  -0.11503564    2.5225277    34579.007 
 6120000    0.8004558  -0.11211851    2.5089085    34549.437 
 6130000   0.80206854  -0.11264525     2.526046    34629.289 
 6140000   0.80037752  -0.10064529    2.5218941    34642.217 
 6150000   0.80277523  -0.11358253    2.5103485    34527.585 
 6160000   0.80667871  -0.10560714    2.5309859     34647.19 
 6170000   0.79746408   -0.1089657    2.4966249     34507.67 
 6180000   0.79768512  -0.11301173    2.5086614    34598.637 
 6190000   0.79948021  -0.10972748    2.5162831    34649.333 
 6200000   0.80863008  -0.11820712     2.532081    34628.096 
 6210000   0.80500655  -0.11538089    2.5020401     34476.88 
 6220000   0.79560086   -0.1110365    2.4909089    34517.998 
 6230000   0.80116704  -0.11555423    2.5118907    34535.016 
 6240000    0.7966154  -0.11405337    2.5320678    34703.654 
 6250000   0.79957921  -0.11505828    2.5091646    34612.279 
 6260000   0.79659246   -0.1130545    2.5055863    34626.627 
 6270000   0.80281967  -0.11354656    2.5192258    34604.488 
 6280000    0.8009853  -0.10552558    2.5073367    34576.883 
 6290000    0.8043809  -0.10147834     2.516286    34629.048 
 6300000   0.80464762  -0.10803638    2.5111568    34571.653 
 6310000   0.80284785   -0.1145127    2.5087726    34569.671 
 6320000    0.7975816  -0.10513343    2.5016344     34550.28 
 6330000   0.79381859  -0.11687149    2.5108532    34621.608 
 6340000   0.80386361  -0.10440635    2.5098457    34552.004 
 6350000   0.80528935  -0.10494224    2.5027534    34485.903 
 6360000    0.7947611  -0.11115632    2.5057212    34592.482 
 6370000   0.80641069  -0.10535112    2.5055157    34492.765 
 6380000   0.80268385  -0.11096511    2.5318276    34692.346 
 6390000   0.80404063  -0.11078462    2.5062455    34520.011 
 6400000   0.79737829  -0.11144479     2.520142    34664.235 
 6410000    0.7970358  -0.10418473    2.5057023    34605.768 
 6420000   0.79699389  -0.11043894    2.5228828     34681.29 
 6430000   0.80102768  -0.11024815    2.5167369    34619.714 
 6440000   0.80492569  -0.11879624     2.517543     34610.13 
 6450000   0.79320416  -0.10561667    2.5145666    34649.933 
 6460000   0.79966575  -0.11522225    2.4966716    34481.853 
 6470000   0.80435084  -0.10992289    2.5291069    34693.093 
 6480000   0.80378621  -0.11104484     2.510341    34537.725 
 6490000   0.79860528  -0.10552018     2.532851    34675.686 
 6500000   0.79585663  -0.11403209    2.5269428    34711.488 
 6510000   0.80213998  -0.11324061    2.5092274    34566.401 
 6520000   0.79621132  -0.11557818    2.5083931    34595.322 
 6530000   0.79539735  -0.10265944    2.5234426    34729.122 
 6540000   0.80396821  -0.11022082    2.5066691    34524.911 
 6550000   0.79875883   -0.1214758    2.5207442    34614.662 
 6560000   0.80919237  -0.10613199     2.515492    34518.726 
 6570000   0.79621907  -0.10631621    2.5248144    34734.463 
 6580000   0.80522928  -0.10754773    2.4965058    34494.843 
 6590000   0.80446293  -0.10443381    2.5146845    34618.045 
 6600000   0.79653773  -0.10859033    2.5126818    34610.348 
 6610000   0.80091818  -0.11259811    2.5083243     34572.01 
 6620000   0.79586271  -0.10368566    2.5171358     34680.45 
 6630000   0.80286649  -0.10352733    2.5034756    34516.305 
 6640000   0.80027384  -0.10581872    2.5049971    34568.337 
 6650000   0.80454988  -0.10395583    2.4956808    34438.763 
 6660000    0.7999112  -0.11103823    2.5247671    34681.545 
 6670000   0.80125183  -0.11206024    2.5136495    34641.943 
 6680000   0.80098828  -0.11257163     2.512263    34572.303 
 6690000   0.79486383  -0.11724316    2.5032077    34581.162 
 6700000   0.80051648  -0.11155825    2.5130263    34565.196 
 6710000   0.80453054  -0.10591077    2.5316593     34691.04 
 6720000   0.79692005  -0.11390798    2.5137214    34626.193 
 6730000   0.79340477  -0.11040442    2.5057126    34610.702 
 6740000   0.80302447  -0.11506773    2.5024595    34533.064 
 6750000   0.79665765  -0.10778267    2.4954556    34553.462 
 6760000   0.80034318  -0.11569726    2.4943041    34488.693 
 6770000   0.80521239  -0.10829742    2.5373235    34661.794 
 6780000    0.7984064  -0.11319463    2.4979313    34486.107 
 6790000   0.80452185  -0.10479565    2.5292408    34648.718 
 6800000   0.80309777  -0.10865094    2.5103569    34547.073 
 6810000   0.80040353  -0.10465692    2.5085242    34571.202 
 6820000   0.80173514  -0.10952127    2.4922322     34483.34 
 6830000   0.79428039  -0.11522109    2.4971256     34565.28 
 6840000    0.7957958  -0.11281166     2.511075    34623.124 
 6850000   0.80413587  -0.12234525    2.5259242    34643.706 
 6860000    0.8040686  -0.12240354    2.5153047    34563.202 
 6870000   0.80361561  -0.11426365    2.5086292    34538.281 
 6880000   0.79521944  -0.11636023    2.5043114    34571.671 
 6890000   0.80170753   -0.1083166    2.5117608    34547.876 
 6900000   0.80325301  -0.11283337    2.4985911    34537.074 
 6910000   0.80290087  -0.11269628    2.5086056    34563.796 
 6920000   0.79353826  -0.11996654    2.4948757    34544.454 
 6930000   0.80232738  -0.11206161    2.5134954    34581.402 
 6940000   0.80175762  -0.11012467     2.488577    34439.648 
 6950000   0.79757084  -0.11069791    2.4895981    34487.174 
 6960000   0.80186208  -0.10534444    2.5107711    34567.404 
 6970000   0.79856517  -0.11411487    2.5090225    34645.887 
 6980000    0.7996555  -0.10334085    2.5134971    34612.496 
 6990000   0.80326255  -0.11388144    2.5022532    34528.783 
 7000000   0.80349721  -0.11145521    2.4998121    34490.143 
Loop time of 4048.2 on 216 procs for 5000000 steps with 27950 atoms

Performance: 533570.352 tau/day, 1235.117 timesteps/s
99.8% CPU use with 216 MPI tasks x 1 OpenMP threads

MPI task timing breakdown:
Section |  min time  |  avg time  |  max time  |%varavg| %total
---------------------------------------------------------------
Pair    | 447.73     | 482.99     | 537.88     |  70.0 | 11.93
Bond    | 8.3435     | 9.6835     | 12.209     |  20.5 |  0.24
Neigh   | 526.07     | 555.87     | 590.4      |  59.1 | 13.73
Comm    | 885.85     | 1027.3     | 1159.7     | 155.7 | 25.38
Output  | 2.1072     | 2.1112     | 2.1535     |   0.2 |  0.05
Modify  | 1616.8     | 1717.7     | 1822.8     |  95.7 | 42.43
Other   |            | 252.6      |            |       |  6.24

Nlocal:    129.398 ave 180 max 111 min
Histogram: 11 50 91 47 5 5 2 1 1 3
Nghost:    956.505 ave 1042 max 906 min
Histogram: 16 28 38 51 32 23 15 4 8 1
Neighs:    4657.21 ave 7686 max 3649 min
Histogram: 13 70 85 31 6 4 2 1 2 2

Total # of neighbors = 1005958
Ave neighs/atom = 35.9913
Ave special neighs/atom = 0.62254
Neighbor list builds = 693840
Dangerous builds = 25
System init for write_restart ...
Setting atom values ...
  9000 settings made for charge
Setting atom values ...
  9000 settings made for charge
Setting atom values ...
  1900 settings made for charge
Setting atom values ...
  950 settings made for charge
System init for write_data ...
PPPM initialization ...
  using 12-bit tables for long-range coulomb (src/kspace.cpp:332)
  G vector (1/distance) = 1.23389
  grid = 120 120 120
  stencil order = 5
  estimated absolute RMS force accuracy = 9.75063e-05
  estimated relative force accuracy = 9.75063e-05
  using double precision FFTW3
  3d grid and FFT values/proc = 19683 8400
WARNING: Neighbor exclusions used with KSpace solver may give inconsistent Coulombic energies (src/neighbor.cpp:486)
Neighbor list info ...
  update every 1 steps, delay 0 steps, check yes
  max neighbors/atom: 2000, page size: 100000
  master list distance cutoff = 2.8
  ghost atom cutoff = 2.8
  binsize = 1.4, bins = 24 24 24
  2 neighbor lists, perpetual/occasional/extra = 2 0 0
  (1) pair lj/cut, perpetual
      attributes: half, newton on
      pair build: half/bin/newton
      stencil: half/bin/3d/newton
      bin: standard
  (2) pair coul/long, perpetual, skip from (1)
      attributes: half, newton on
      pair build: skip
      stencil: none
      bin: none
PPPM initialization ...
  using 12-bit tables for long-range coulomb (src/kspace.cpp:332)
  G vector (1/distance) = 1.23389
  grid = 120 120 120
  stencil order = 5
  estimated absolute RMS force accuracy = 9.75063e-05
  estimated relative force accuracy = 9.75063e-05
  using double precision FFTW3
  3d grid and FFT values/proc = 19683 8400
WARNING: Neighbor exclusions used with KSpace solver may give inconsistent Coulombic energies (src/neighbor.cpp:486)
Neighbor list info ...
  update every 1 steps, delay 0 steps, check yes
  max neighbors/atom: 2000, page size: 100000
  master list distance cutoff = 2.8
  ghost atom cutoff = 2.8
  binsize = 1.4, bins = 24 24 24
  2 neighbor lists, perpetual/occasional/extra = 2 0 0
  (1) pair lj/cut, perpetual
      attributes: half, newton on
      pair build: half/bin/newton
      stencil: half/bin/3d/newton
      bin: standard
  (2) pair coul/long, perpetual, skip from (1)
      attributes: half, newton on
      pair build: skip
      stencil: none
      bin: none
Setting up Verlet run ...
  Unit style    : lj
  Current step  : 7000000
  Time step     : 0.005
Per MPI rank memory allocation (min/avg/max) = 16.63 | 17 | 17.68 Mbytes
Step Temp Press TotEng Volume 
 7000000   0.80349721  -0.28806434    3.8669992    34490.143 
 7010000   0.79860899   -0.2555313    2.4015919    34490.143 
 7020000   0.80186952  -0.25542563    2.3913685    34490.143 
 7030000   0.80526319  -0.22985889    2.3988026    34490.143 
 7040000   0.79657004  -0.25379167    2.3809711    34490.143 
 7050000   0.79304661  -0.26582857     2.376599    34490.143 
 7060000   0.79616641  -0.29639228    2.3800685    34490.143 
 7070000   0.80278609  -0.25445451    2.3889611    34490.143 
 7080000   0.80069327  -0.23771327     2.393142    34490.143 
 7090000   0.79484744  -0.24188131    2.3821344    34490.143 
 7100000   0.79746954  -0.27160492    2.3820475    34490.143 
 7110000   0.80634997  -0.28208888    2.3916975    34490.143 
 7120000   0.80530329  -0.25168091    2.3896663    34490.143 
 7130000   0.80043694  -0.22615977    2.3802801    34490.143 
 7140000   0.80443347  -0.29380418    2.3948446    34490.143 
 7150000   0.80001972  -0.25578611    2.3795201    34490.143 
 7160000   0.80013592  -0.22019407    2.3862996    34490.143 
 7170000   0.79961049  -0.30992368    2.3763577    34490.143 
 7180000   0.79484137  -0.24383093    2.3683821    34490.143 
 7190000   0.79992741  -0.28737994    2.3880838    34490.143 
 7200000   0.79473248  -0.28120869    2.3788803    34490.143 
 7210000   0.79790309   -0.3055136    2.3749909    34490.143 
 7220000   0.80143825  -0.25565169    2.3858432    34490.143 
 7230000   0.79141388  -0.23189508    2.3711154    34490.143 
 7240000   0.80667335   -0.2326667    2.3989908    34490.143 
 7250000    0.8070585  -0.27345847    2.3873418    34490.143 
 7260000   0.80035119   -0.1855473    2.3873946    34490.143 
 7270000   0.79091347  -0.20785449    2.3712296    34490.143 
 7280000   0.80135071  -0.26342398    2.3792087    34490.143 
 7290000   0.80106418  -0.24377772    2.3835369    34490.143 
 7300000   0.79945617  -0.20682099    2.3837635    34490.143 
 7310000   0.80403508   -0.2231436    2.3948051    34490.143 
 7320000   0.79801057  -0.21286553    2.3785954    34490.143 
 7330000   0.79791692  -0.26021314    2.3787176    34490.143 
 7340000   0.79464445  -0.25570996    2.3786655    34490.143 
 7350000   0.80754209  -0.23789904    2.3882377    34490.143 
 7360000   0.80047184  -0.23394843    2.3847919    34490.143 
 7370000   0.80229246  -0.26190764    2.3899501    34490.143 
 7380000    0.8034316  -0.20200211    2.3917685    34490.143 
 7390000   0.79802886  -0.28505499     2.373551    34490.143 
 7400000   0.80083068  -0.25967946    2.3822528    34490.143 
 7410000   0.79986583  -0.27703759    2.3866879    34490.143 
 7420000   0.79642845  -0.13731608    2.3916258    34490.143 
 7430000   0.80511402  -0.23892443    2.3975877    34490.143 
 7440000   0.79417613  -0.24350416     2.380306    34490.143 
 7450000   0.80185721  -0.27216791    2.3849493    34490.143 
 7460000   0.79828882  -0.23506409    2.3740305    34490.143 
 7470000   0.80614819  -0.23116894    2.3918984    34490.143 
 7480000   0.80151808   -0.2332054    2.3871003    34490.143 
 7490000   0.80532515  -0.30342436    2.3859723    34490.143 
 7500000   0.80397588  -0.23541628    2.3917288    34490.143 
 7510000   0.79963368  -0.19096146    2.3843297    34490.143 
 7520000   0.79954263  -0.26769922    2.3812297    34490.143 
 7530000   0.79931927  -0.20331417    2.3818315    34490.143 
 7540000   0.80910692  -0.23446517    2.4051379    34490.143 
 7550000   0.80069024  -0.22255511    2.3856935    34490.143 
 7560000   0.80124656  -0.24512498    2.3795975    34490.143 
 7570000   0.79850886  -0.23365878    2.3779369    34490.143 
 7580000   0.79704289  -0.17876236    2.3792152    34490.143 
 7590000   0.80330328   -0.2093607    2.3915133    34490.143 
 7600000   0.79887892  -0.23720236    2.3839869    34490.143 
 7610000   0.79701935  -0.19466317    2.3888327    34490.143 
 7620000   0.79969022  -0.23970803    2.3798993    34490.143 
 7630000   0.80030232  -0.23094701    2.3910877    34490.143 
 7640000   0.80158818  -0.22721386    2.3918387    34490.143 
 7650000   0.80567052  -0.29787209    2.3904975    34490.143 
 7660000   0.80882144  -0.24952361    2.3993846    34490.143 
 7670000   0.79777123  -0.22328595    2.3705289    34490.143 
 7680000   0.79653099  -0.28371341      2.38143    34490.143 
 7690000   0.80049997   -0.1998858     2.387121    34490.143 
 7700000   0.79682322  -0.18116718    2.3834554    34490.143 
 7710000   0.80024028   -0.1520419    2.3863711    34490.143 
 7720000   0.80212448  -0.21872146    2.3882057    34490.143 
 7730000   0.80130539  -0.20762445    2.3878991    34490.143 
 7740000   0.80566101  -0.24674052    2.3890059    34490.143 
 7750000   0.80039045  -0.22013062    2.3899377    34490.143 
 7760000   0.79693609  -0.27713642    2.3727297    34490.143 
 7770000    0.8010551  -0.27562772    2.3804616    34490.143 
 7780000   0.80531965  -0.17514485    2.3947999    34490.143 
 7790000   0.79470467  -0.20047885    2.3798317    34490.143 
 7800000   0.79980974  -0.20055727    2.3791886    34490.143 
 7810000   0.79504789  -0.22097966    2.3727886    34490.143 
 7820000   0.80406186  -0.23663659    2.3896159    34490.143 
 7830000   0.79660783  -0.21803977     2.377903    34490.143 
 7840000   0.79828329  -0.23773156    2.3806419    34490.143 
 7850000   0.80784214  -0.27480676    2.3898271    34490.143 
 7860000   0.79837346  -0.22690209    2.3965071    34490.143 
 7870000   0.79458518  -0.27508586    2.3694127    34490.143 
 7880000   0.80159995  -0.23922075    2.3907843    34490.143 
 7890000   0.79986999  -0.25022292    2.3930084    34490.143 
 7900000   0.79909841  -0.26938373     2.375629    34490.143 
 7910000   0.80130239  -0.25925013    2.3916348    34490.143 
 7920000   0.80119195  -0.20178605    2.3937343    34490.143 
 7930000   0.80612061  -0.22037959    2.3877159    34490.143 
 7940000   0.80249471  -0.23232607    2.3800715    34490.143 
 7950000   0.79899536  -0.27350233    2.3779223    34490.143 
 7960000   0.81025118  -0.21263838    2.4019729    34490.143 
 7970000   0.80051685  -0.20783162     2.382432    34490.143 
 7980000   0.80191486  -0.21573202    2.3902976    34490.143 
 7990000   0.80075929  -0.22953821    2.3885192    34490.143 
 8000000     0.791982  -0.21130292    2.3832579    34490.143 
 8010000   0.79920305  -0.24331485    2.3897628    34490.143 
 8020000   0.79252706  -0.23600245    2.3805457    34490.143 
 8030000   0.79829754  -0.22065427    2.3773371    34490.143 
 8040000   0.79663073    -0.171587    2.3721595    34490.143 
 8050000   0.79940553  -0.20759452    2.3829941    34490.143 
 8060000    0.8081044  -0.26269245    2.3875803    34490.143 
 8070000   0.80491675  -0.20268883    2.3877222    34490.143 
 8080000   0.79912582  -0.25352601    2.3763255    34490.143 
 8090000   0.80080253  -0.23730608    2.3744266    34490.143 
 8100000   0.79353801  -0.20010466    2.3811154    34490.143 
 8110000   0.79852043  -0.27284278    2.3697342    34490.143 
 8120000   0.79224831  -0.20138421    2.3662365    34490.143 
 8130000   0.80392333  -0.26122836    2.3806354    34490.143 
 8140000   0.79924408  -0.29035101    2.3715357    34490.143 
 8150000   0.80514399  -0.24796777    2.3863336    34490.143 
 8160000   0.80842242  -0.16360888    2.3969617    34490.143 
 8170000   0.80304213  -0.20043447    2.3874746    34490.143 
 8180000   0.80180139  -0.28481666    2.3795486    34490.143 
 8190000   0.79819852  -0.28493089    2.3824906    34490.143 
 8200000   0.80748506  -0.29893524    2.3881671    34490.143 
 8210000   0.79961791  -0.23796651     2.380188    34490.143 
 8220000   0.80365172  -0.23797183    2.3816655    34490.143 
 8230000   0.80170754    -0.279334    2.3881925    34490.143 
 8240000   0.80410361  -0.25047222    2.3830572    34490.143 
 8250000   0.80238837   -0.2056328    2.3897937    34490.143 
 8260000   0.80298342   -0.2557719    2.3817192    34490.143 
 8270000   0.79535909  -0.23946172    2.3733051    34490.143 
 8280000   0.80115472  -0.18126086    2.3823517    34490.143 
 8290000   0.80405997  -0.23440559    2.3809804    34490.143 
 8300000   0.79568513  -0.24035085    2.3804596    34490.143 
 8310000   0.79410349  -0.19948067    2.3767229    34490.143 
 8320000   0.80291489  -0.16907443    2.3819574    34490.143 
 8330000   0.80254483  -0.21576787     2.378293    34490.143 
 8340000    0.7983672   -0.2995594    2.3745093    34490.143 
 8350000   0.80285449  -0.24802805    2.3916994    34490.143 
 8360000   0.79959485  -0.21929651    2.3833735    34490.143 
 8370000    0.7997921  -0.23570497    2.3741159    34490.143 
 8380000   0.79491321  -0.20240147    2.3776289    34490.143 
 8390000   0.80939527  -0.28868126    2.3943492    34490.143 
 8400000   0.80155214  -0.29832714    2.3823303    34490.143 
 8410000    0.7992743  -0.19731885    2.3819724    34490.143 
 8420000   0.79856025   -0.2753742    2.3726159    34490.143 
 8430000   0.79866441   -0.2444617    2.3717605    34490.143 
 8440000   0.80472746  -0.19675039    2.3941166    34490.143 
 8450000   0.79867245  -0.22549738    2.3878635    34490.143 
 8460000    0.7937062  -0.20995163    2.3691203    34490.143 
 8470000   0.79059855  -0.24931678    2.3678334    34490.143 
 8480000   0.80377179  -0.23551472    2.3829682    34490.143 
 8490000   0.80372252  -0.23078115    2.3816964    34490.143 
 8500000   0.80433165  -0.22924271    2.3843653    34490.143 
 8510000   0.80053187  -0.25379424    2.3762632    34490.143 
 8520000   0.79615932  -0.19267721    2.3761581    34490.143 
 8530000   0.80287687  -0.18599477    2.3924377    34490.143 
 8540000   0.80025713  -0.20021386    2.3848092    34490.143 
 8550000   0.79818005  -0.27203569    2.3731202    34490.143 
 8560000   0.79822822  -0.28176206    2.3742802    34490.143 
 8570000   0.79015325  -0.22443057    2.3635865    34490.143 
 8580000   0.80079616  -0.22056439    2.3775398    34490.143 
 8590000   0.79966062  -0.21944429    2.3747134    34490.143 
 8600000   0.79674323  -0.25252379    2.3773644    34490.143 
 8610000    0.7984924  -0.22318247    2.3760707    34490.143 
 8620000   0.79846897  -0.20031454    2.3817579    34490.143 
 8630000   0.79415568  -0.21416138    2.3762213    34490.143 
 8640000   0.79758708  -0.23707969    2.3790644    34490.143 
 8650000   0.79762379  -0.20597404    2.3894146    34490.143 
 8660000   0.80286853  -0.23694805    2.3882791    34490.143 
 8670000   0.80324349  -0.17803276    2.3908727    34490.143 
 8680000   0.79799718  -0.29307568    2.3766164    34490.143 
 8690000   0.80760751  -0.27776726    2.3898802    34490.143 
 8700000   0.79276727  -0.28729564    2.3675773    34490.143 
 8710000   0.80032464  -0.18522135    2.3912667    34490.143 
 8720000   0.79490053  -0.23272473    2.3707419    34490.143 
 8730000   0.80476119  -0.34043186     2.381838    34490.143 
 8740000   0.79707265  -0.20202306    2.3677993    34490.143 
 8750000    0.7999029  -0.25633678    2.3739853    34490.143 
 8760000   0.79308394  -0.29481063    2.3705122    34490.143 
 8770000   0.79081297  -0.21597023    2.3599436    34490.143 
 8780000   0.79060775  -0.22985324    2.3751539    34490.143 
 8790000    0.7975296  -0.22059055    2.3764615    34490.143 
 8800000   0.80133379  -0.20877882    2.3902254    34490.143 
 8810000   0.80332081  -0.26092624    2.3851024    34490.143 
 8820000   0.80691918  -0.25139044    2.3958531    34490.143 
 8830000   0.79414655  -0.26863856    2.3759653    34490.143 
 8840000   0.79885793  -0.23484444    2.3839428    34490.143 
 8850000   0.80081507  -0.20447489    2.3906204    34490.143 
 8860000   0.79902327  -0.20901785    2.3792537    34490.143 
 8870000    0.8060148  -0.29268651    2.3884229    34490.143 
 8880000   0.79837801  -0.20762405    2.3771703    34490.143 
 8890000   0.79263882    -0.288378    2.3682922    34490.143 
 8900000   0.80073753  -0.20219529    2.3803624    34490.143 
 8910000   0.79952327  -0.18192468    2.3847199    34490.143 
 8920000    0.7984066  -0.16988828    2.3809264    34490.143 
 8930000    0.8091528  -0.26168689     2.400863    34490.143 
 8940000   0.80266303  -0.22673339    2.3891548    34490.143 
 8950000   0.80681178    -0.258163    2.3892503    34490.143 
 8960000    0.7914489  -0.20667649    2.3755831    34490.143 
 8970000   0.79930206  -0.15447074    2.3769825    34490.143 
 8980000   0.79785323  -0.20533719    2.3796205    34490.143 
 8990000   0.79820166  -0.22319774     2.374693    34490.143 
 9000000   0.80053651  -0.25349706     2.374798    34490.143 
 9010000   0.80806421  -0.32801635    2.3795006    34490.143 
 9020000   0.79343218  -0.21208144    2.3726723    34490.143 
 9030000   0.80055243  -0.18539539    2.3817687    34490.143 
 9040000   0.80465175   -0.2402559    2.3872276    34490.143 
 9050000   0.79983652  -0.17367121    2.3903056    34490.143 
 9060000   0.80222452  -0.18577369    2.3924783    34490.143 
 9070000   0.80315258  -0.21130453    2.3874961    34490.143 
 9080000   0.79988275  -0.18106768    2.3823398    34490.143 
 9090000   0.80664304  -0.17464803     2.399067    34490.143 
 9100000   0.79899412  -0.21684435    2.3763393    34490.143 
 9110000   0.79476076  -0.23121881    2.3783473    34490.143 
 9120000    0.8043642  -0.24811215    2.3933239    34490.143 
 9130000   0.80318986  -0.29184608    2.3835047    34490.143 
 9140000   0.80322789  -0.20185533    2.3903158    34490.143 
 9150000    0.8052295   -0.2870545     2.385453    34490.143 
 9160000   0.79046501  -0.23255074    2.3681279    34490.143 
 9170000   0.80182384  -0.23835468    2.3847305    34490.143 
 9180000   0.79479556  -0.21491357    2.3655658    34490.143 
 9190000   0.80021706  -0.24534596    2.3850801    34490.143 
 9200000   0.79137715  -0.30871851     2.375088    34490.143 
 9210000   0.79814975  -0.24927131    2.3759487    34490.143 
 9220000   0.80158374  -0.24711442    2.3858906    34490.143 
 9230000    0.8050832  -0.22000077    2.3840201    34490.143 
 9240000   0.80167121  -0.21474879    2.3857907    34490.143 
 9250000    0.8028632  -0.24938285    2.3915681    34490.143 
 9260000     0.801324  -0.29910309    2.3761743    34490.143 
 9270000   0.80615214  -0.26299396    2.3917669    34490.143 
 9280000   0.79680016  -0.27464148    2.3807196    34490.143 
 9290000   0.80122846  -0.27787009     2.367069    34490.143 
 9300000   0.80315602  -0.24342466    2.3869584    34490.143 
 9310000   0.80199644  -0.23350296    2.3837572    34490.143 
 9320000   0.79604222  -0.24849057    2.3815154    34490.143 
 9330000   0.79693586  -0.28714918    2.3759866    34490.143 
 9340000   0.79671525  -0.23491804    2.3742427    34490.143 
 9350000   0.80611754  -0.27625378    2.3845193    34490.143 
 9360000   0.80836245  -0.25259571    2.3878449    34490.143 
 9370000   0.80030855  -0.24291969    2.3903477    34490.143 
 9380000   0.80269391  -0.22845843    2.3869083    34490.143 
 9390000    0.8009365  -0.25607317     2.381172    34490.143 
 9400000   0.79868891  -0.25809049    2.3792781    34490.143 
 9410000   0.80086047  -0.28776415    2.3796702    34490.143 
 9420000   0.79210034    -0.290557    2.3617299    34490.143 
 9430000   0.80080494  -0.23603667    2.3829378    34490.143 
 9440000   0.79751453   -0.2805484     2.375288    34490.143 
 9450000   0.80014459  -0.29084902    2.3784237    34490.143 
 9460000   0.80179754  -0.23486456    2.3806541    34490.143 
 9470000   0.79928443  -0.20848139    2.3839397    34490.143 
 9480000    0.8005728  -0.16758978     2.383656    34490.143 
 9490000   0.78861555  -0.24638583    2.3690164    34490.143 
 9500000   0.80674925  -0.22801203    2.3855213    34490.143 
 9510000   0.79692892  -0.28143856    2.3773912    34490.143 
 9520000   0.80128612  -0.28197577    2.3781318    34490.143 
 9530000   0.80040681  -0.22964506    2.3812593    34490.143 
 9540000   0.79686177   -0.1809857    2.3847155    34490.143 
 9550000   0.79984751  -0.25881037    2.3787072    34490.143 
 9560000   0.79749888   -0.2253549     2.380556    34490.143 
 9570000   0.80743306  -0.20358155    2.3897201    34490.143 
 9580000   0.79749565  -0.29572487    2.3697908    34490.143 
 9590000   0.80190706  -0.26642288      2.38471    34490.143 
 9600000   0.80676482  -0.23727586    2.3912432    34490.143 
 9610000   0.79969152    -0.231633    2.3800233    34490.143 
 9620000   0.79636035  -0.22175926    2.3857798    34490.143 
 9630000   0.80405885   -0.2440278    2.3894574    34490.143 
 9640000   0.79558651  -0.23571519    2.3757904    34490.143 
 9650000   0.80514581  -0.21226375    2.3933575    34490.143 
 9660000    0.7968043  -0.26230956     2.367044    34490.143 
 9670000   0.80256887  -0.21771803    2.3814208    34490.143 
 9680000   0.80098661  -0.34129209    2.3707343    34490.143 
 9690000   0.79463003   -0.2851819    2.3724977    34490.143 
 9700000   0.80173217  -0.20562674    2.3921509    34490.143 
 9710000   0.79831669  -0.19155526    2.3870882    34490.143 
 9720000   0.80143253  -0.26202317    2.3788728    34490.143 
 9730000   0.80314102  -0.25308435    2.3862694    34490.143 
 9740000   0.79888833  -0.28065785    2.3792718    34490.143 
 9750000   0.79836973   -0.2274727     2.390259    34490.143 
 9760000   0.80017255  -0.22111905    2.3840432    34490.143 
 9770000   0.80256508  -0.24338737    2.3863005    34490.143 
 9780000   0.79974296  -0.24384296    2.3770857    34490.143 
 9790000   0.79540032  -0.27293939    2.3562138    34490.143 
 9800000   0.80670803  -0.23525207     2.390811    34490.143 
 9810000   0.80504084  -0.27315256     2.383785    34490.143 
 9820000   0.78877239  -0.21872624    2.3611084    34490.143 
 9830000   0.79909953  -0.20135589    2.3863663    34490.143 
 9840000   0.79421286  -0.25620246    2.3773236    34490.143 
 9850000   0.79927508  -0.20868558    2.3729364    34490.143 
 9860000   0.79869999  -0.28122427    2.3734323    34490.143 
 9870000    0.7941248  -0.25664115    2.3742656    34490.143 
 9880000   0.79824919   -0.2535849    2.3791318    34490.143 
 9890000   0.80183578  -0.24131796    2.3814946    34490.143 
 9900000   0.80631725  -0.24239892    2.3920135    34490.143 
 9910000   0.80127712  -0.16415533    2.3818013    34490.143 
 9920000   0.79824971   -0.1728351    2.3784967    34490.143 
 9930000   0.80334983  -0.21224668     2.392394    34490.143 
 9940000   0.79748962  -0.23698678     2.378841    34490.143 
 9950000   0.80075791  -0.21340555    2.3797114    34490.143 
 9960000   0.79897267  -0.29583712    2.3677212    34490.143 
 9970000   0.80406729  -0.23310273    2.3917819    34490.143 
 9980000   0.80554571   -0.2250911    2.3875434    34490.143 
 9990000   0.79845801  -0.24543986    2.3699252    34490.143 
10000000   0.79638096  -0.25807502    2.3720626    34490.143 
10010000   0.80951819   -0.2429804    2.3869052    34490.143 
10020000   0.80479909  -0.22997933    2.3887076    34490.143 
10030000   0.80510457   -0.2392006    2.3891702    34490.143 
10040000   0.80209789  -0.24534216    2.3831077    34490.143 
10050000   0.79589021  -0.25846329    2.3711088    34490.143 
10060000   0.80084135  -0.24977048    2.3781655    34490.143 
10070000   0.79690673  -0.23310321    2.3750368    34490.143 
10080000   0.80432626  -0.20634009    2.3931893    34490.143 
10090000    0.7919273  -0.24670876      2.36511    34490.143 
10100000   0.80827286  -0.25204686    2.3934959    34490.143 
10110000   0.80276519  -0.23537419    2.3774882    34490.143 
10120000   0.80060996  -0.26098189    2.3887618    34490.143 
10130000   0.79773623  -0.28738349    2.3696204    34490.143 
10140000   0.79803399  -0.22533492    2.3842358    34490.143 
10150000   0.80410227  -0.28383614     2.381492    34490.143 
10160000   0.80697936  -0.28331582     2.382101    34490.143 
10170000   0.79370766  -0.23312774    2.3783544    34490.143 
10180000   0.80097492  -0.26890761    2.3800855    34490.143 
10190000    0.7957287  -0.18091499    2.3744564    34490.143 
10200000   0.80372792  -0.19730575    2.3936441    34490.143 
10210000   0.80230909  -0.21715211    2.3891677    34490.143 
10220000   0.80000239  -0.25823615    2.3722041    34490.143 
10230000   0.79404534  -0.20414092    2.3803942    34490.143 
10240000   0.80047017  -0.23716367    2.3759559    34490.143 
10250000   0.79641003  -0.22937921    2.3779162    34490.143 
10260000   0.80148395  -0.29319021    2.3737407    34490.143 
10270000   0.80193704  -0.22658051    2.3817304    34490.143 
10280000   0.80531477  -0.21257706    2.3867991    34490.143 
10290000   0.80623498  -0.23790661    2.3904206    34490.143 
10300000   0.80697467  -0.32956145    2.3851084    34490.143 
10310000   0.79732085  -0.22561861    2.3721544    34490.143 
10320000   0.80077289  -0.20411454    2.3780461    34490.143 
10330000   0.79804084  -0.28558863    2.3731782    34490.143 
10340000   0.80067292  -0.20520997    2.3794935    34490.143 
10350000   0.80357519  -0.23373143    2.3873582    34490.143 
10360000   0.79963785  -0.27480615     2.374034    34490.143 
10370000   0.80176075  -0.25951287    2.3768053    34490.143 
10380000   0.80089625  -0.21317424    2.3779641    34490.143 
10390000   0.80192935   -0.2386483     2.392538    34490.143 
10400000   0.80391379  -0.23386128    2.3841814    34490.143 
10410000   0.80660682  -0.21436727    2.3934134    34490.143 
10420000   0.80394662  -0.21185238    2.3837902    34490.143 
10430000   0.78892577  -0.24774578    2.3639097    34490.143 
10440000   0.80455972  -0.23384907    2.3787275    34490.143 
10450000   0.79792702  -0.25388249    2.3803446    34490.143 
10460000   0.80118704  -0.26050528    2.3786175    34490.143 
10470000     0.796254  -0.22217703    2.3749055    34490.143 
10480000   0.80267239  -0.26819511    2.3851446    34490.143 
10490000   0.79672594  -0.23464678    2.3750896    34490.143 
10500000   0.79790405  -0.16996223    2.3798508    34490.143 
10510000   0.79604792  -0.23190848    2.3662721    34490.143 
10520000   0.80934161  -0.25750604    2.3920858    34490.143 
10530000   0.80413335  -0.25713887    2.3891028    34490.143 
10540000   0.80616854  -0.17768138    2.3924919    34490.143 
10550000   0.79648106  -0.27224592    2.3720924    34490.143 
10560000   0.80277128  -0.29710802    2.3895126    34490.143 
10570000   0.80309589  -0.24641155    2.3850583    34490.143 
10580000   0.80053185  -0.29109254    2.3750247    34490.143 
10590000   0.80305537  -0.25264137    2.3779113    34490.143 
10600000   0.80416198  -0.23202308    2.3901166    34490.143 
10610000   0.79897115  -0.25226717    2.3713918    34490.143 
10620000   0.81106529  -0.19899014    2.3954182    34490.143 
10630000   0.80432103  -0.30302884    2.3747601    34490.143 
10640000   0.79608664  -0.31199649      2.36813    34490.143 
10650000   0.79313146  -0.30743575    2.3624588    34490.143 
10660000   0.79901873  -0.22694247    2.3846642    34490.143 
10670000   0.80032074  -0.20746168    2.3857221    34490.143 
10680000   0.80173309   -0.2316088    2.3750473    34490.143 
10690000   0.79548212  -0.26167689    2.3726731    34490.143 
10700000    0.8042737  -0.23827865    2.3815625    34490.143 
10710000   0.79874873  -0.22137286    2.3834236    34490.143 
10720000   0.80181594   -0.2868792    2.3820644    34490.143 
10730000   0.79606982  -0.21572607    2.3823986    34490.143 
10740000   0.79768814   -0.2296171    2.3748673    34490.143 
10750000   0.79840116  -0.24267809    2.3753509    34490.143 
10760000   0.79983544  -0.29719082    2.3714509    34490.143 
10770000   0.79726351  -0.30533957    2.3731134    34490.143 
10780000   0.79884317  -0.17796881    2.3898434    34490.143 
10790000   0.80468293  -0.21830465    2.3856577    34490.143 
10800000    0.8004577  -0.18796811    2.3839134    34490.143 
10810000   0.79953197  -0.21150139    2.3870566    34490.143 
10820000    0.8056746  -0.28359623    2.3837228    34490.143 
10830000   0.80301341  -0.26369894    2.3776199    34490.143 
10840000   0.79816928  -0.26639683    2.3770639    34490.143 
10850000   0.80216467  -0.18564584    2.3920983    34490.143 
10860000   0.80663995  -0.26228765     2.389189    34490.143 
10870000   0.80376072  -0.28875842    2.3848677    34490.143 
10880000    0.8014555  -0.24153499    2.3854752    34490.143 
10890000   0.79714536  -0.20174161    2.3793064    34490.143 
10900000   0.79721073  -0.19497516    2.3784745    34490.143 
10910000   0.80248922  -0.26091011    2.3810229    34490.143 
10920000   0.80181685  -0.25883028    2.3778719    34490.143 
10930000   0.79604392  -0.26270142    2.3680288    34490.143 
10940000   0.81043335  -0.24063655    2.3923307    34490.143 
10950000   0.79636618  -0.23335715    2.3786183    34490.143 
10960000   0.80195514  -0.20845908    2.3891267    34490.143 
10970000   0.80467369   -0.2345519    2.3949109    34490.143 
10980000   0.79722585  -0.21796618    2.3833678    34490.143 
10990000   0.79833764  -0.29117559    2.3793753    34490.143 
11000000   0.79877713  -0.24775463    2.3767353    34490.143 
11010000    0.8020701  -0.24601285    2.3748423    34490.143 
11020000   0.79581471  -0.23522252    2.3740187    34490.143 
11030000   0.79952772  -0.29994792    2.3798364    34490.143 
11040000   0.80414099  -0.25253827    2.3928967    34490.143 
11050000   0.79853495   -0.2714574    2.3727106    34490.143 
11060000   0.79842677  -0.29245789    2.3813193    34490.143 
11070000   0.79957913  -0.25721046    2.3709786    34490.143 
11080000   0.79927236  -0.31419437    2.3781194    34490.143 
11090000   0.79472793  -0.26109628    2.3673701    34490.143 
11100000   0.79784049  -0.23786416     2.376105    34490.143 
11110000   0.79176586  -0.20946774    2.3723915    34490.143 
11120000   0.79602092  -0.29940007     2.370041    34490.143 
11130000   0.80024496  -0.25707011    2.3798116    34490.143 
11140000   0.80248998   -0.1946029    2.3839741    34490.143 
11150000   0.80255902  -0.19661141    2.3867908    34490.143 
11160000   0.80180669  -0.24649509    2.3864595    34490.143 
11170000   0.80593906  -0.26723999    2.3852889    34490.143 
11180000   0.80183921  -0.24023122    2.3865544    34490.143 
11190000   0.80041418    -0.241943    2.3840068    34490.143 
11200000   0.79477485  -0.24560808    2.3760809    34490.143 
11210000    0.7965274  -0.19965961    2.3738791    34490.143 
11220000   0.80239992  -0.28898203    2.3833991    34490.143 
11230000   0.79689034  -0.26760685    2.3689721    34490.143 
11240000    0.8015929  -0.12829793     2.396898    34490.143 
11250000   0.79904394    -0.246821     2.375211    34490.143 
11260000   0.79161104  -0.28240147    2.3575288    34490.143 
11270000   0.79755819  -0.25301537    2.3648874    34490.143 
11280000    0.8007639  -0.21961916    2.3827653    34490.143 
11290000   0.80179784  -0.23241009    2.3809707    34490.143 
11300000   0.80059427  -0.20712815    2.3859839    34490.143 
11310000   0.80537005  -0.26140583     2.386251    34490.143 
11320000   0.80593388  -0.25316557    2.3853716    34490.143 
11330000    0.7924637  -0.25982422    2.3772273    34490.143 
11340000   0.78991869  -0.20675039    2.3689005    34490.143 
11350000   0.79900189  -0.20456907    2.3807005    34490.143 
11360000   0.80974608  -0.25850332     2.389215    34490.143 
11370000   0.81131114  -0.27353891    2.3903777    34490.143 
11380000   0.80492734  -0.21936388    2.3856146    34490.143 
11390000   0.79158393   -0.2693713     2.369148    34490.143 
11400000   0.79750608  -0.23532522    2.3798412    34490.143 
11410000   0.80163678  -0.21567684    2.3875634    34490.143 
11420000   0.79665441  -0.23344161    2.3764646    34490.143 
11430000   0.79874895  -0.24348459    2.3753266    34490.143 
11440000   0.80475833  -0.23951527    2.3812893    34490.143 
11450000   0.80312179  -0.27565908    2.3802891    34490.143 
11460000   0.80048885  -0.23101134    2.3866464    34490.143 
11470000   0.80310613  -0.27337293    2.3779912    34490.143 
11480000   0.80089306  -0.29262751    2.3802124    34490.143 
11490000   0.80073155  -0.21915911    2.3745732    34490.143 
11500000   0.80492626  -0.27995764    2.3911484    34490.143 
11510000   0.80027033  -0.19083836    2.3858908    34490.143 
11520000   0.79676816  -0.28029692     2.366847    34490.143 
11530000   0.80214645  -0.26877888    2.3762053    34490.143 
11540000   0.79646477  -0.22548941    2.3802217    34490.143 
11550000    0.8001829  -0.21317815    2.3819937    34490.143 
11560000    0.7993754  -0.31010213    2.3731657    34490.143 
11570000    0.8003471  -0.25339835    2.3829693    34490.143 
11580000   0.79717871  -0.26344738    2.3739881    34490.143 
11590000   0.80303781  -0.20114552    2.3873066    34490.143 
11600000   0.80172063  -0.18002704    2.3856857    34490.143 
11610000    0.8035465  -0.19862584    2.3878467    34490.143 
11620000   0.79543118  -0.23232701    2.3780716    34490.143 
11630000   0.79667781  -0.26435372    2.3695791    34490.143 
11640000   0.79681002  -0.24309956      2.37671    34490.143 
11650000   0.79657762  -0.23640711    2.3786438    34490.143 
11660000   0.79377266  -0.24156103    2.3693928    34490.143 
11670000   0.80717273  -0.21860659    2.3852271    34490.143 
11680000   0.80222413  -0.21643488    2.3802619    34490.143 
11690000   0.80171904  -0.23056976    2.3901152    34490.143 
11700000   0.79960868  -0.27271185    2.3762526    34490.143 
11710000   0.79922501  -0.25565661    2.3736601    34490.143 
11720000   0.79720634  -0.26102665    2.3729715    34490.143 
11730000   0.79928175  -0.27009012    2.3792122    34490.143 
11740000   0.79279853  -0.22984364    2.3641526    34490.143 
11750000   0.79603014  -0.28062418    2.3742566    34490.143 
11760000    0.8035881  -0.22400903    2.3861941    34490.143 
11770000   0.80161108  -0.26850399    2.3749012    34490.143 
11780000   0.79855383  -0.25697048    2.3784858    34490.143 
11790000   0.80240529   -0.2246879    2.3843881    34490.143 
11800000   0.80210162  -0.29624991    2.3824964    34490.143 
11810000   0.80243158  -0.22274355    2.3841152    34490.143 
11820000   0.80486519  -0.22702672    2.3770592    34490.143 
11830000   0.80708933  -0.24180003    2.3898624    34490.143 
11840000   0.79827674  -0.20372137    2.3872688    34490.143 
11850000    0.7975442  -0.23548581    2.3828234    34490.143 
11860000   0.79785268  -0.26170701    2.3748398    34490.143 
11870000   0.78814358  -0.23219521    2.3657225    34490.143 
11880000     0.798038  -0.20698761    2.3777661    34490.143 
11890000   0.80258162  -0.27950783    2.3763592    34490.143 
11900000   0.80178238  -0.25113953    2.3800923    34490.143 
11910000   0.79182663  -0.26432202    2.3694487    34490.143 
11920000   0.80052251   -0.2466516    2.3805967    34490.143 
11930000   0.79840925  -0.27803497     2.373031    34490.143 
11940000   0.79853448  -0.21741668    2.3768855    34490.143 
11950000   0.80216151  -0.23226207     2.385867    34490.143 
11960000    0.7951566  -0.27395276    2.3674771    34490.143 
11970000   0.79956801  -0.22954721    2.3832954    34490.143 
11980000   0.79597692  -0.24629663    2.3747095    34490.143 
11990000   0.79324064  -0.23588328    2.3720404    34490.143 
12000000   0.79968453  -0.23168161    2.3746963    34490.143 
Loop time of 74119.2 on 216 procs for 5000000 steps with 27950 atoms

Performance: 29142.264 tau/day, 67.459 timesteps/s
99.8% CPU use with 216 MPI tasks x 1 OpenMP threads

MPI task timing breakdown:
Section |  min time  |  avg time  |  max time  |%varavg| %total
---------------------------------------------------------------
Pair    | 935.07     | 1030.6     | 1158.5     | 125.1 |  1.39
Bond    | 9.8702     | 12.266     | 16.12      |  27.5 |  0.02
Kspace  | 67245      | 68466      | 68974      | 128.0 | 92.37
Neigh   | 548        | 576.73     | 612.17     |  56.6 |  0.78
Comm    | 1380.5     | 1791.1     | 2823.2     | 675.4 |  2.42
Output  | 3.0652     | 3.0666     | 3.1099     |   0.2 |  0.00
Modify  | 1705       | 1869.9     | 2077.5     | 181.1 |  2.52
Other   |            | 369.8      |            |       |  0.50

Nlocal:    129.398 ave 197 max 111 min
Histogram: 20 100 61 19 6 5 3 1 0 1
Nghost:    953.991 ave 1056 max 897 min
Histogram: 15 37 49 39 30 13 15 9 6 3
Neighs:    4738.1 ave 9292 max 3663 min
Histogram: 38 114 37 12 5 4 4 1 0 1

Total # of neighbors = 1023430
Ave neighs/atom = 36.6165
Ave special neighs/atom = 0.62254
Neighbor list builds = 672601
Dangerous builds = 0
System init for write_restart ...
PPPM initialization ...
  using 12-bit tables for long-range coulomb (src/kspace.cpp:332)
  G vector (1/distance) = 1.23389
  grid = 120 120 120
  stencil order = 5
  estimated absolute RMS force accuracy = 9.75063e-05
  estimated relative force accuracy = 9.75063e-05
  using double precision FFTW3
  3d grid and FFT values/proc = 19683 8400
WARNING: Neighbor exclusions used with KSpace solver may give inconsistent Coulombic energies (src/neighbor.cpp:486)
Neighbor list info ...
  update every 1 steps, delay 0 steps, check yes
  max neighbors/atom: 2000, page size: 100000
  master list distance cutoff = 2.8
  ghost atom cutoff = 2.8
  binsize = 1.4, bins = 24 24 24
  2 neighbor lists, perpetual/occasional/extra = 2 0 0
  (1) pair lj/cut, perpetual
      attributes: half, newton on
      pair build: half/bin/newton
      stencil: half/bin/3d/newton
      bin: standard
  (2) pair coul/long, perpetual, skip from (1)
      attributes: half, newton on
      pair build: skip
      stencil: none
      bin: none
Total wall time: 21:59:56
