ITEM: TIMESTEP
0
ITEM: NUMBER OF ATOMS
1425
ITEM: BOX BOUNDS pp pp pp
0.0000000000000000e+00 3.4000000000000000e+01
0.0000000000000000e+00 3.4000000000000000e+01
0.0000000000000000e+00 3.4000000000000000e+01
ITEM: ATOMS id mol type x y z 
27054 303 4 4 3.26795 1.1 
27055 303 4 5 3 1.1 
27053 303 4 3.26795 4 1.1 
27044 303 4 4.5 4.13398 1.1 
27045 303 4 5.5 4.13398 1.1 
27052 303 4 3 5 1.1 
27043 303 4 4 5 1.1 
27039 303 4 5 5 1.1 
27225 312 4 4 3.26795 4.4 
27226 312 4 5 3 4.4 
27224 312 4 3.26795 4 4.4 
27215 312 4 4.5 4.13398 4.4 
27216 312 4 5.5 4.13398 4.4 
27223 312 4 3 5 4.4 
27214 312 4 4 5 4.4 
27210 312 4 5 5 4.4 
27377 320 4 4 3.26795 7.7 
27378 320 4 5 3 7.7 
27376 320 4 3.26795 4 7.7 
27367 320 4 4.5 4.13398 7.7 
27368 320 4 5.5 4.13398 7.7 
27375 320 4 3 5 7.7 
27366 320 4 4 5 7.7 
27362 320 4 5 5 7.7 
27586 331 4 4 3.26795 13.2 
27587 331 4 5 3 13.2 
27585 331 4 3.26795 4 13.2 
27576 331 4 4.5 4.13398 13.2 
27577 331 4 5.5 4.13398 13.2 
27584 331 4 3 5 13.2 
27575 331 4 4 5 13.2 
27571 331 4 5 5 13.2 
27719 338 4 4 3.26795 16.5 
27720 338 4 5 3 16.5 
27718 338 4 3.26795 4 16.5 
27709 338 4 4.5 4.13398 16.5 
27710 338 4 5.5 4.13398 16.5 
27717 338 4 3 5 16.5 
27708 338 4 4 5 16.5 
27704 338 4 5 5 16.5 
27833 344 4 4 3.26795 19.8 
27834 344 4 5 3 19.8 
27832 344 4 3.26795 4 19.8 
27823 344 4 4.5 4.13398 19.8 
27824 344 4 5.5 4.13398 19.8 
27831 344 4 3 5 19.8 
27822 344 4 4 5 19.8 
27818 344 4 5 5 19.8 
27890 347 4 4 3.26795 20.9 
27891 347 4 5 3 20.9 
27889 347 4 3.26795 4 20.9 
27880 347 4 4.5 4.13398 20.9 
27881 347 4 5.5 4.13398 20.9 
27888 347 4 3 5 20.9 
27879 347 4 4 5 20.9 
27875 347 4 5 5 20.9 
27966 351 4 4 3.26795 22 
27967 351 4 5 3 22 
27965 351 4 3.26795 4 22 
27956 351 4 4.5 4.13398 22 
27957 351 4 5.5 4.13398 22 
27964 351 4 3 5 22 
27955 351 4 4 5 22 
27951 351 4 5 5 22 
28023 354 4 4 3.26795 24.2 
28024 354 4 5 3 24.2 
28022 354 4 3.26795 4 24.2 
28013 354 4 4.5 4.13398 24.2 
28014 354 4 5.5 4.13398 24.2 
28021 354 4 3 5 24.2 
28012 354 4 4 5 24.2 
28008 354 4 5 5 24.2 
28061 356 4 4 3.26795 25.3 
28062 356 4 5 3 25.3 
28060 356 4 3.26795 4 25.3 
28051 356 4 4.5 4.13398 25.3 
28052 356 4 5.5 4.13398 25.3 
28059 356 4 3 5 25.3 
28050 356 4 4 5 25.3 
28046 356 4 5 5 25.3 
28099 358 4 4 3.26795 26.4 
28100 358 4 5 3 26.4 
28098 358 4 3.26795 4 26.4 
28089 358 4 4.5 4.13398 26.4 
28090 358 4 5.5 4.13398 26.4 
28097 358 4 3 5 26.4 
28088 358 4 4 5 26.4 
28084 358 4 5 5 26.4 
28270 367 4 4 3.26795 28.6 
28271 367 4 5 3 28.6 
28269 367 4 3.26795 4 28.6 
28260 367 4 4.5 4.13398 28.6 
28261 367 4 5.5 4.13398 28.6 
28268 367 4 3 5 28.6 
28259 367 4 4 5 28.6 
28255 367 4 5 5 28.6 
27051 303 4 3.26795 6 1.1 
27042 303 4 4.5 5.86602 1.1 
27041 303 4 5.5 5.86602 1.1 
27050 303 4 4 6.73205 1.1 
27049 303 4 5 7 1.1 
27222 312 4 3.26795 6 4.4 
27213 312 4 4.5 5.86602 4.4 
27212 312 4 5.5 5.86602 4.4 
27221 312 4 4 6.73205 4.4 
27220 312 4 5 7 4.4 
27374 320 4 3.26795 6 7.7 
27365 320 4 4.5 5.86602 7.7 
27364 320 4 5.5 5.86602 7.7 
27373 320 4 4 6.73205 7.7 
27372 320 4 5 7 7.7 
27583 331 4 3.26795 6 13.2 
27574 331 4 4.5 5.86602 13.2 
27573 331 4 5.5 5.86602 13.2 
27582 331 4 4 6.73205 13.2 
27581 331 4 5 7 13.2 
27716 338 4 3.26795 6 16.5 
27707 338 4 4.5 5.86602 16.5 
27706 338 4 5.5 5.86602 16.5 
27715 338 4 4 6.73205 16.5 
27714 338 4 5 7 16.5 
27830 344 4 3.26795 6 19.8 
27821 344 4 4.5 5.86602 19.8 
27820 344 4 5.5 5.86602 19.8 
27829 344 4 4 6.73205 19.8 
27828 344 4 5 7 19.8 
27887 347 4 3.26795 6 20.9 
27878 347 4 4.5 5.86602 20.9 
27877 347 4 5.5 5.86602 20.9 
27886 347 4 4 6.73205 20.9 
27885 347 4 5 7 20.9 
27963 351 4 3.26795 6 22 
27954 351 4 4.5 5.86602 22 
27953 351 4 5.5 5.86602 22 
27962 351 4 4 6.73205 22 
27961 351 4 5 7 22 
28020 354 4 3.26795 6 24.2 
28011 354 4 4.5 5.86602 24.2 
28010 354 4 5.5 5.86602 24.2 
28019 354 4 4 6.73205 24.2 
28018 354 4 5 7 24.2 
28058 356 4 3.26795 6 25.3 
28049 356 4 4.5 5.86602 25.3 
28048 356 4 5.5 5.86602 25.3 
28057 356 4 4 6.73205 25.3 
28056 356 4 5 7 25.3 
28096 358 4 3.26795 6 26.4 
28087 358 4 4.5 5.86602 26.4 
28086 358 4 5.5 5.86602 26.4 
28095 358 4 4 6.73205 26.4 
28094 358 4 5 7 26.4 
28267 367 4 3.26795 6 28.6 
28258 367 4 4.5 5.86602 28.6 
28257 367 4 5.5 5.86602 28.6 
28266 367 4 4 6.73205 28.6 
28265 367 4 5 7 28.6 
27017 301 4 5 13 0 
27015 301 4 3.26795 14 0 
27006 301 4 4.5 14.134 0 
27016 301 4 4 13.2679 0 
27007 301 4 5.5 14.134 0 
27014 301 4 3 15 0 
27005 301 4 4 15 0 
27001 301 4 5 15 0 
27013 301 4 3.26795 16 0 
27004 301 4 4.5 15.866 0 
27003 301 4 5.5 15.866 0 
27012 301 4 4 16.7321 0 
27112 306 4 5 13 2.2 
27110 306 4 3.26795 14 2.2 
27101 306 4 4.5 14.134 2.2 
27111 306 4 4 13.2679 2.2 
27102 306 4 5.5 14.134 2.2 
27109 306 4 3 15 2.2 
27100 306 4 4 15 2.2 
27096 306 4 5 15 2.2 
27108 306 4 3.26795 16 2.2 
27099 306 4 4.5 15.866 2.2 
27098 306 4 5.5 15.866 2.2 
27107 306 4 4 16.7321 2.2 
27264 314 4 5 13 4.4 
27262 314 4 3.26795 14 4.4 
27253 314 4 4.5 14.134 4.4 
27263 314 4 4 13.2679 4.4 
27254 314 4 5.5 14.134 4.4 
27261 314 4 3 15 4.4 
27252 314 4 4 15 4.4 
27248 314 4 5 15 4.4 
27260 314 4 3.26795 16 4.4 
27251 314 4 4.5 15.866 4.4 
27250 314 4 5.5 15.866 4.4 
27259 314 4 4 16.7321 4.4 
27435 323 4 5 13 9.9 
27433 323 4 3.26795 14 9.9 
27424 323 4 4.5 14.134 9.9 
27434 323 4 4 13.2679 9.9 
27425 323 4 5.5 14.134 9.9 
27432 323 4 3 15 9.9 
27423 323 4 4 15 9.9 
27419 323 4 5 15 9.9 
27431 323 4 3.26795 16 9.9 
27422 323 4 4.5 15.866 9.9 
27421 323 4 5.5 15.866 9.9 
27430 323 4 4 16.7321 9.9 
27549 329 4 5 13 12.1 
27547 329 4 3.26795 14 12.1 
27538 329 4 4.5 14.134 12.1 
27548 329 4 4 13.2679 12.1 
27539 329 4 5.5 14.134 12.1 
27546 329 4 3 15 12.1 
27537 329 4 4 15 12.1 
27533 329 4 5 15 12.1 
27545 329 4 3.26795 16 12.1 
27536 329 4 4.5 15.866 12.1 
27535 329 4 5.5 15.866 12.1 
27544 329 4 4 16.7321 12.1 
27682 336 4 5 13 15.4 
27680 336 4 3.26795 14 15.4 
27671 336 4 4.5 14.134 15.4 
27681 336 4 4 13.2679 15.4 
27672 336 4 5.5 14.134 15.4 
27679 336 4 3 15 15.4 
27670 336 4 4 15 15.4 
27666 336 4 5 15 15.4 
27678 336 4 3.26795 16 15.4 
27669 336 4 4.5 15.866 15.4 
27668 336 4 5.5 15.866 15.4 
27677 336 4 4 16.7321 15.4 
27872 346 4 5 13 19.8 
27870 346 4 3.26795 14 19.8 
27861 346 4 4.5 14.134 19.8 
27871 346 4 4 13.2679 19.8 
27862 346 4 5.5 14.134 19.8 
27869 346 4 3 15 19.8 
27860 346 4 4 15 19.8 
27856 346 4 5 15 19.8 
27868 346 4 3.26795 16 19.8 
27859 346 4 4.5 15.866 19.8 
27858 346 4 5.5 15.866 19.8 
27867 346 4 4 16.7321 19.8 
27986 352 4 5 13 22 
27984 352 4 3.26795 14 22 
27975 352 4 4.5 14.134 22 
27985 352 4 4 13.2679 22 
27976 352 4 5.5 14.134 22 
27983 352 4 3 15 22 
27974 352 4 4 15 22 
27970 352 4 5 15 22 
27982 352 4 3.26795 16 22 
27973 352 4 4.5 15.866 22 
27972 352 4 5.5 15.866 22 
27981 352 4 4 16.7321 22 
28195 363 4 5 13 27.5 
28193 363 4 3.26795 14 27.5 
28184 363 4 4.5 14.134 27.5 
28194 363 4 4 13.2679 27.5 
28185 363 4 5.5 14.134 27.5 
28192 363 4 3 15 27.5 
28183 363 4 4 15 27.5 
28179 363 4 5 15 27.5 
28191 363 4 3.26795 16 27.5 
28182 363 4 4.5 15.866 27.5 
28181 363 4 5.5 15.866 27.5 
28190 363 4 4 16.7321 27.5 
28328 370 4 5 13 29.7 
28326 370 4 3.26795 14 29.7 
28317 370 4 4.5 14.134 29.7 
28327 370 4 4 13.2679 29.7 
28318 370 4 5.5 14.134 29.7 
28325 370 4 3 15 29.7 
28316 370 4 4 15 29.7 
28312 370 4 5 15 29.7 
28324 370 4 3.26795 16 29.7 
28315 370 4 4.5 15.866 29.7 
28314 370 4 5.5 15.866 29.7 
28323 370 4 4 16.7321 29.7 
27011 301 4 5 17 0 
27106 306 4 5 17 2.2 
27258 314 4 5 17 4.4 
27429 323 4 5 17 9.9 
27543 329 4 5 17 12.1 
27676 336 4 5 17 15.4 
27866 346 4 5 17 19.8 
27980 352 4 5 17 22 
28189 363 4 5 17 27.5 
28322 370 4 5 17 29.7 
27130 307 4 4 23.2679 2.2 
27131 307 4 5 23 2.2 
27129 307 4 3.26795 24 2.2 
27120 307 4 4.5 24.134 2.2 
27121 307 4 5.5 24.134 2.2 
27128 307 4 3 25 2.2 
27119 307 4 4 25 2.2 
27115 307 4 5 25 2.2 
27127 307 4 3.26795 26 2.2 
27118 307 4 4.5 25.866 2.2 
27117 307 4 5.5 25.866 2.2 
27126 307 4 4 26.7321 2.2 
27125 307 4 5 27 2.2 
27282 315 4 4 23.2679 4.4 
27283 315 4 5 23 4.4 
27281 315 4 3.26795 24 4.4 
27272 315 4 4.5 24.134 4.4 
27273 315 4 5.5 24.134 4.4 
27280 315 4 3 25 4.4 
27271 315 4 4 25 4.4 
27267 315 4 5 25 4.4 
27279 315 4 3.26795 26 4.4 
27270 315 4 4.5 25.866 4.4 
27269 315 4 5.5 25.866 4.4 
27278 315 4 4 26.7321 4.4 
27277 315 4 5 27 4.4 
27738 339 4 4 23.2679 16.5 
27739 339 4 5 23 16.5 
27737 339 4 3.26795 24 16.5 
27728 339 4 4.5 24.134 16.5 
27729 339 4 5.5 24.134 16.5 
27736 339 4 3 25 16.5 
27727 339 4 4 25 16.5 
27723 339 4 5 25 16.5 
27735 339 4 3.26795 26 16.5 
27726 339 4 4.5 25.866 16.5 
27725 339 4 5.5 25.866 16.5 
27734 339 4 4 26.7321 16.5 
27733 339 4 5 27 16.5 
27928 349 4 4 23.2679 20.9 
27929 349 4 5 23 20.9 
27927 349 4 3.26795 24 20.9 
27918 349 4 4.5 24.134 20.9 
27919 349 4 5.5 24.134 20.9 
27926 349 4 3 25 20.9 
27917 349 4 4 25 20.9 
27913 349 4 5 25 20.9 
27925 349 4 3.26795 26 20.9 
27916 349 4 4.5 25.866 20.9 
27915 349 4 5.5 25.866 20.9 
27924 349 4 4 26.7321 20.9 
27923 349 4 5 27 20.9 
28118 359 4 4 23.2679 26.4 
28119 359 4 5 23 26.4 
28117 359 4 3.26795 24 26.4 
28108 359 4 4.5 24.134 26.4 
28109 359 4 5.5 24.134 26.4 
28116 359 4 3 25 26.4 
28107 359 4 4 25 26.4 
28103 359 4 5 25 26.4 
28115 359 4 3.26795 26 26.4 
28106 359 4 4.5 25.866 26.4 
28105 359 4 5.5 25.866 26.4 
28114 359 4 4 26.7321 26.4 
28113 359 4 5 27 26.4 
28346 371 4 4 23.2679 29.7 
28347 371 4 5 23 29.7 
28345 371 4 3.26795 24 29.7 
28336 371 4 4.5 24.134 29.7 
28337 371 4 5.5 24.134 29.7 
28344 371 4 3 25 29.7 
28335 371 4 4 25 29.7 
28331 371 4 5 25 29.7 
28343 371 4 3.26795 26 29.7 
28334 371 4 4.5 25.866 29.7 
28333 371 4 5.5 25.866 29.7 
28342 371 4 4 26.7321 29.7 
28341 371 4 5 27 29.7 
27056 303 4 6 3.26795 1.1 
27057 303 4 6.73205 4 1.1 
27040 303 4 6 5 1.1 
27046 303 4 7 5 1.1 
27227 312 4 6 3.26795 4.4 
27228 312 4 6.73205 4 4.4 
27211 312 4 6 5 4.4 
27217 312 4 7 5 4.4 
27379 320 4 6 3.26795 7.7 
27380 320 4 6.73205 4 7.7 
27363 320 4 6 5 7.7 
27369 320 4 7 5 7.7 
27588 331 4 6 3.26795 13.2 
27589 331 4 6.73205 4 13.2 
27572 331 4 6 5 13.2 
27578 331 4 7 5 13.2 
27721 338 4 6 3.26795 16.5 
27722 338 4 6.73205 4 16.5 
27705 338 4 6 5 16.5 
27711 338 4 7 5 16.5 
27835 344 4 6 3.26795 19.8 
27836 344 4 6.73205 4 19.8 
27819 344 4 6 5 19.8 
27825 344 4 7 5 19.8 
27892 347 4 6 3.26795 20.9 
27893 347 4 6.73205 4 20.9 
27876 347 4 6 5 20.9 
27882 347 4 7 5 20.9 
27968 351 4 6 3.26795 22 
27969 351 4 6.73205 4 22 
27952 351 4 6 5 22 
27958 351 4 7 5 22 
28025 354 4 6 3.26795 24.2 
28026 354 4 6.73205 4 24.2 
28009 354 4 6 5 24.2 
28015 354 4 7 5 24.2 
28063 356 4 6 3.26795 25.3 
28064 356 4 6.73205 4 25.3 
28047 356 4 6 5 25.3 
28053 356 4 7 5 25.3 
28101 358 4 6 3.26795 26.4 
28102 358 4 6.73205 4 26.4 
28085 358 4 6 5 26.4 
28091 358 4 7 5 26.4 
28272 367 4 6 3.26795 28.6 
28273 367 4 6.73205 4 28.6 
28256 367 4 6 5 28.6 
28262 367 4 7 5 28.6 
27047 303 4 6.73205 6 1.1 
27048 303 4 6 6.73205 1.1 
27218 312 4 6.73205 6 4.4 
27219 312 4 6 6.73205 4.4 
27370 320 4 6.73205 6 7.7 
27371 320 4 6 6.73205 7.7 
27579 331 4 6.73205 6 13.2 
27580 331 4 6 6.73205 13.2 
27712 338 4 6.73205 6 16.5 
27713 338 4 6 6.73205 16.5 
27826 344 4 6.73205 6 19.8 
27827 344 4 6 6.73205 19.8 
27883 347 4 6.73205 6 20.9 
27884 347 4 6 6.73205 20.9 
27959 351 4 6.73205 6 22 
27960 351 4 6 6.73205 22 
28016 354 4 6.73205 6 24.2 
28017 354 4 6 6.73205 24.2 
28054 356 4 6.73205 6 25.3 
28055 356 4 6 6.73205 25.3 
28092 358 4 6.73205 6 26.4 
28093 358 4 6 6.73205 26.4 
28263 367 4 6.73205 6 28.6 
28264 367 4 6 6.73205 28.6 
27018 301 4 6 13.2679 0 
27019 301 4 6.73205 14 0 
27002 301 4 6 15 0 
27008 301 4 7 15 0 
27009 301 4 6.73205 16 0 
27010 301 4 6 16.7321 0 
27113 306 4 6 13.2679 2.2 
27114 306 4 6.73205 14 2.2 
27097 306 4 6 15 2.2 
27103 306 4 7 15 2.2 
27104 306 4 6.73205 16 2.2 
27105 306 4 6 16.7321 2.2 
27265 314 4 6 13.2679 4.4 
27266 314 4 6.73205 14 4.4 
27249 314 4 6 15 4.4 
27255 314 4 7 15 4.4 
27256 314 4 6.73205 16 4.4 
27257 314 4 6 16.7321 4.4 
27436 323 4 6 13.2679 9.9 
27437 323 4 6.73205 14 9.9 
27420 323 4 6 15 9.9 
27426 323 4 7 15 9.9 
27427 323 4 6.73205 16 9.9 
27428 323 4 6 16.7321 9.9 
27550 329 4 6 13.2679 12.1 
27551 329 4 6.73205 14 12.1 
27534 329 4 6 15 12.1 
27540 329 4 7 15 12.1 
27541 329 4 6.73205 16 12.1 
27542 329 4 6 16.7321 12.1 
27683 336 4 6 13.2679 15.4 
27684 336 4 6.73205 14 15.4 
27667 336 4 6 15 15.4 
27673 336 4 7 15 15.4 
27674 336 4 6.73205 16 15.4 
27675 336 4 6 16.7321 15.4 
27873 346 4 6 13.2679 19.8 
27874 346 4 6.73205 14 19.8 
27857 346 4 6 15 19.8 
27863 346 4 7 15 19.8 
27864 346 4 6.73205 16 19.8 
27865 346 4 6 16.7321 19.8 
27987 352 4 6 13.2679 22 
27988 352 4 6.73205 14 22 
27971 352 4 6 15 22 
27977 352 4 7 15 22 
27978 352 4 6.73205 16 22 
27979 352 4 6 16.7321 22 
28196 363 4 6 13.2679 27.5 
28197 363 4 6.73205 14 27.5 
28180 363 4 6 15 27.5 
28186 363 4 7 15 27.5 
28187 363 4 6.73205 16 27.5 
28188 363 4 6 16.7321 27.5 
28329 370 4 6 13.2679 29.7 
28330 370 4 6.73205 14 29.7 
28313 370 4 6 15 29.7 
28319 370 4 7 15 29.7 
28320 370 4 6.73205 16 29.7 
28321 370 4 6 16.7321 29.7 
27132 307 4 6 23.2679 2.2 
27133 307 4 6.73205 24 2.2 
27116 307 4 6 25 2.2 
27122 307 4 7 25 2.2 
27123 307 4 6.73205 26 2.2 
27124 307 4 6 26.7321 2.2 
27284 315 4 6 23.2679 4.4 
27285 315 4 6.73205 24 4.4 
27268 315 4 6 25 4.4 
27274 315 4 7 25 4.4 
27275 315 4 6.73205 26 4.4 
27276 315 4 6 26.7321 4.4 
27740 339 4 6 23.2679 16.5 
27741 339 4 6.73205 24 16.5 
27724 339 4 6 25 16.5 
27730 339 4 7 25 16.5 
27731 339 4 6.73205 26 16.5 
27732 339 4 6 26.7321 16.5 
27930 349 4 6 23.2679 20.9 
27931 349 4 6.73205 24 20.9 
27914 349 4 6 25 20.9 
27920 349 4 7 25 20.9 
27921 349 4 6.73205 26 20.9 
27922 349 4 6 26.7321 20.9 
28120 359 4 6 23.2679 26.4 
28121 359 4 6.73205 24 26.4 
28104 359 4 6 25 26.4 
28110 359 4 7 25 26.4 
28111 359 4 6.73205 26 26.4 
28112 359 4 6 26.7321 26.4 
28348 371 4 6 23.2679 29.7 
28349 371 4 6.73205 24 29.7 
28332 371 4 6 25 29.7 
28338 371 4 7 25 29.7 
28339 371 4 6.73205 26 29.7 
28340 371 4 6 26.7321 29.7 
27092 305 4 14 3.26795 2.2 
27093 305 4 15 3 2.2 
27094 305 4 16 3.26795 2.2 
27091 305 4 13.2679 4 2.2 
27082 305 4 14.5 4.13398 2.2 
27083 305 4 15.5 4.13398 2.2 
27095 305 4 16.7321 4 2.2 
27090 305 4 13 5 2.2 
27081 305 4 14 5 2.2 
27077 305 4 15 5 2.2 
27078 305 4 16 5 2.2 
27168 309 4 14 3.26795 3.3 
27169 309 4 15 3 3.3 
27170 309 4 16 3.26795 3.3 
27167 309 4 13.2679 4 3.3 
27158 309 4 14.5 4.13398 3.3 
27159 309 4 15.5 4.13398 3.3 
27171 309 4 16.7321 4 3.3 
27166 309 4 13 5 3.3 
27157 309 4 14 5 3.3 
27153 309 4 15 5 3.3 
27154 309 4 16 5 3.3 
27529 328 4 14 3.26795 12.1 
27530 328 4 15 3 12.1 
27531 328 4 16 3.26795 12.1 
27528 328 4 13.2679 4 12.1 
27519 328 4 14.5 4.13398 12.1 
27520 328 4 15.5 4.13398 12.1 
27532 328 4 16.7321 4 12.1 
27527 328 4 13 5 12.1 
27518 328 4 14 5 12.1 
27514 328 4 15 5 12.1 
27515 328 4 16 5 12.1 
27605 332 4 14 3.26795 13.2 
27606 332 4 15 3 13.2 
27607 332 4 16 3.26795 13.2 
27604 332 4 13.2679 4 13.2 
27595 332 4 14.5 4.13398 13.2 
27596 332 4 15.5 4.13398 13.2 
27608 332 4 16.7321 4 13.2 
27603 332 4 13 5 13.2 
27594 332 4 14 5 13.2 
27590 332 4 15 5 13.2 
27591 332 4 16 5 13.2 
27757 340 4 14 3.26795 17.6 
27758 340 4 15 3 17.6 
27759 340 4 16 3.26795 17.6 
27756 340 4 13.2679 4 17.6 
27747 340 4 14.5 4.13398 17.6 
27748 340 4 15.5 4.13398 17.6 
27760 340 4 16.7321 4 17.6 
27755 340 4 13 5 17.6 
27746 340 4 14 5 17.6 
27742 340 4 15 5 17.6 
27743 340 4 16 5 17.6 
27852 345 4 14 3.26795 19.8 
27853 345 4 15 3 19.8 
27854 345 4 16 3.26795 19.8 
27851 345 4 13.2679 4 19.8 
27842 345 4 14.5 4.13398 19.8 
27843 345 4 15.5 4.13398 19.8 
27855 345 4 16.7321 4 19.8 
27850 345 4 13 5 19.8 
27841 345 4 14 5 19.8 
27837 345 4 15 5 19.8 
27838 345 4 16 5 19.8 
28175 362 4 14 3.26795 27.5 
28176 362 4 15 3 27.5 
28177 362 4 16 3.26795 27.5 
28174 362 4 13.2679 4 27.5 
28165 362 4 14.5 4.13398 27.5 
28166 362 4 15.5 4.13398 27.5 
28178 362 4 16.7321 4 27.5 
28173 362 4 13 5 27.5 
28164 362 4 14 5 27.5 
28160 362 4 15 5 27.5 
28161 362 4 16 5 27.5 
28308 369 4 14 3.26795 29.7 
28309 369 4 15 3 29.7 
28310 369 4 16 3.26795 29.7 
28307 369 4 13.2679 4 29.7 
28298 369 4 14.5 4.13398 29.7 
28299 369 4 15.5 4.13398 29.7 
28311 369 4 16.7321 4 29.7 
28306 369 4 13 5 29.7 
28297 369 4 14 5 29.7 
28293 369 4 15 5 29.7 
28294 369 4 16 5 29.7 
28403 374 4 14 3.26795 31.9 
28404 374 4 15 3 31.9 
28405 374 4 16 3.26795 31.9 
28402 374 4 13.2679 4 31.9 
28393 374 4 14.5 4.13398 31.9 
28394 374 4 15.5 4.13398 31.9 
28406 374 4 16.7321 4 31.9 
28401 374 4 13 5 31.9 
28392 374 4 14 5 31.9 
28388 374 4 15 5 31.9 
28389 374 4 16 5 31.9 
27089 305 4 13.2679 6 2.2 
27080 305 4 14.5 5.86602 2.2 
27079 305 4 15.5 5.86602 2.2 
27085 305 4 16.7321 6 2.2 
27088 305 4 14 6.73205 2.2 
27087 305 4 15 7 2.2 
27086 305 4 16 6.73205 2.2 
27165 309 4 13.2679 6 3.3 
27156 309 4 14.5 5.86602 3.3 
27155 309 4 15.5 5.86602 3.3 
27161 309 4 16.7321 6 3.3 
27164 309 4 14 6.73205 3.3 
27163 309 4 15 7 3.3 
27162 309 4 16 6.73205 3.3 
27526 328 4 13.2679 6 12.1 
27517 328 4 14.5 5.86602 12.1 
27516 328 4 15.5 5.86602 12.1 
27522 328 4 16.7321 6 12.1 
27525 328 4 14 6.73205 12.1 
27524 328 4 15 7 12.1 
27523 328 4 16 6.73205 12.1 
27602 332 4 13.2679 6 13.2 
27593 332 4 14.5 5.86602 13.2 
27592 332 4 15.5 5.86602 13.2 
27598 332 4 16.7321 6 13.2 
27601 332 4 14 6.73205 13.2 
27600 332 4 15 7 13.2 
27599 332 4 16 6.73205 13.2 
27754 340 4 13.2679 6 17.6 
27745 340 4 14.5 5.86602 17.6 
27744 340 4 15.5 5.86602 17.6 
27750 340 4 16.7321 6 17.6 
27753 340 4 14 6.73205 17.6 
27752 340 4 15 7 17.6 
27751 340 4 16 6.73205 17.6 
27849 345 4 13.2679 6 19.8 
27840 345 4 14.5 5.86602 19.8 
27839 345 4 15.5 5.86602 19.8 
27845 345 4 16.7321 6 19.8 
27848 345 4 14 6.73205 19.8 
27847 345 4 15 7 19.8 
27846 345 4 16 6.73205 19.8 
28172 362 4 13.2679 6 27.5 
28163 362 4 14.5 5.86602 27.5 
28162 362 4 15.5 5.86602 27.5 
28168 362 4 16.7321 6 27.5 
28171 362 4 14 6.73205 27.5 
28170 362 4 15 7 27.5 
28169 362 4 16 6.73205 27.5 
28305 369 4 13.2679 6 29.7 
28296 369 4 14.5 5.86602 29.7 
28295 369 4 15.5 5.86602 29.7 
28301 369 4 16.7321 6 29.7 
28304 369 4 14 6.73205 29.7 
28303 369 4 15 7 29.7 
28302 369 4 16 6.73205 29.7 
28400 374 4 13.2679 6 31.9 
28391 374 4 14.5 5.86602 31.9 
28390 374 4 15.5 5.86602 31.9 
28396 374 4 16.7321 6 31.9 
28399 374 4 14 6.73205 31.9 
28398 374 4 15 7 31.9 
28397 374 4 16 6.73205 31.9 
27340 318 4 15 13 6.6 
27338 318 4 13.2679 14 6.6 
27339 318 4 14 13.2679 6.6 
27329 318 4 14.5 14.134 6.6 
27330 318 4 15.5 14.134 6.6 
27341 318 4 16 13.2679 6.6 
27342 318 4 16.7321 14 6.6 
27337 318 4 13 15 6.6 
27328 318 4 14 15 6.6 
27324 318 4 15 15 6.6 
27325 318 4 16 15 6.6 
27336 318 4 13.2679 16 6.6 
27327 318 4 14.5 15.866 6.6 
27326 318 4 15.5 15.866 6.6 
27332 318 4 16.7321 16 6.6 
27335 318 4 14 16.7321 6.6 
27333 318 4 16 16.7321 6.6 
27492 326 4 15 13 11 
27490 326 4 13.2679 14 11 
27491 326 4 14 13.2679 11 
27481 326 4 14.5 14.134 11 
27482 326 4 15.5 14.134 11 
27493 326 4 16 13.2679 11 
27494 326 4 16.7321 14 11 
27489 326 4 13 15 11 
27480 326 4 14 15 11 
27476 326 4 15 15 11 
27477 326 4 16 15 11 
27488 326 4 13.2679 16 11 
27479 326 4 14.5 15.866 11 
27478 326 4 15.5 15.866 11 
27484 326 4 16.7321 16 11 
27487 326 4 14 16.7321 11 
27485 326 4 16 16.7321 11 
27568 330 4 15 13 12.1 
27566 330 4 13.2679 14 12.1 
27567 330 4 14 13.2679 12.1 
27557 330 4 14.5 14.134 12.1 
27558 330 4 15.5 14.134 12.1 
27569 330 4 16 13.2679 12.1 
27570 330 4 16.7321 14 12.1 
27565 330 4 13 15 12.1 
27556 330 4 14 15 12.1 
27552 330 4 15 15 12.1 
27553 330 4 16 15 12.1 
27564 330 4 13.2679 16 12.1 
27555 330 4 14.5 15.866 12.1 
27554 330 4 15.5 15.866 12.1 
27560 330 4 16.7321 16 12.1 
27563 330 4 14 16.7321 12.1 
27561 330 4 16 16.7321 12.1 
27644 334 4 15 13 14.3 
27642 334 4 13.2679 14 14.3 
27643 334 4 14 13.2679 14.3 
27633 334 4 14.5 14.134 14.3 
27634 334 4 15.5 14.134 14.3 
27645 334 4 16 13.2679 14.3 
27646 334 4 16.7321 14 14.3 
27641 334 4 13 15 14.3 
27632 334 4 14 15 14.3 
27628 334 4 15 15 14.3 
27629 334 4 16 15 14.3 
27640 334 4 13.2679 16 14.3 
27631 334 4 14.5 15.866 14.3 
27630 334 4 15.5 15.866 14.3 
27636 334 4 16.7321 16 14.3 
27639 334 4 14 16.7321 14.3 
27637 334 4 16 16.7321 14.3 
27701 337 4 15 13 15.4 
27699 337 4 13.2679 14 15.4 
27700 337 4 14 13.2679 15.4 
27690 337 4 14.5 14.134 15.4 
27691 337 4 15.5 14.134 15.4 
27702 337 4 16 13.2679 15.4 
27703 337 4 16.7321 14 15.4 
27698 337 4 13 15 15.4 
27689 337 4 14 15 15.4 
27685 337 4 15 15 15.4 
27686 337 4 16 15 15.4 
27697 337 4 13.2679 16 15.4 
27688 337 4 14.5 15.866 15.4 
27687 337 4 15.5 15.866 15.4 
27693 337 4 16.7321 16 15.4 
27696 337 4 14 16.7321 15.4 
27694 337 4 16 16.7321 15.4 
27777 341 4 15 13 17.6 
27775 341 4 13.2679 14 17.6 
27776 341 4 14 13.2679 17.6 
27766 341 4 14.5 14.134 17.6 
27767 341 4 15.5 14.134 17.6 
27778 341 4 16 13.2679 17.6 
27779 341 4 16.7321 14 17.6 
27774 341 4 13 15 17.6 
27765 341 4 14 15 17.6 
27761 341 4 15 15 17.6 
27762 341 4 16 15 17.6 
27773 341 4 13.2679 16 17.6 
27764 341 4 14.5 15.866 17.6 
27763 341 4 15.5 15.866 17.6 
27769 341 4 16.7321 16 17.6 
27772 341 4 14 16.7321 17.6 
27770 341 4 16 16.7321 17.6 
28081 357 4 15 13 25.3 
28079 357 4 13.2679 14 25.3 
28080 357 4 14 13.2679 25.3 
28070 357 4 14.5 14.134 25.3 
28071 357 4 15.5 14.134 25.3 
28082 357 4 16 13.2679 25.3 
28083 357 4 16.7321 14 25.3 
28078 357 4 13 15 25.3 
28069 357 4 14 15 25.3 
28065 357 4 15 15 25.3 
28066 357 4 16 15 25.3 
28077 357 4 13.2679 16 25.3 
28068 357 4 14.5 15.866 25.3 
28067 357 4 15.5 15.866 25.3 
28073 357 4 16.7321 16 25.3 
28076 357 4 14 16.7321 25.3 
28074 357 4 16 16.7321 25.3 
28214 364 4 15 13 27.5 
28212 364 4 13.2679 14 27.5 
28213 364 4 14 13.2679 27.5 
28203 364 4 14.5 14.134 27.5 
28204 364 4 15.5 14.134 27.5 
28215 364 4 16 13.2679 27.5 
28216 364 4 16.7321 14 27.5 
28211 364 4 13 15 27.5 
28202 364 4 14 15 27.5 
28198 364 4 15 15 27.5 
28199 364 4 16 15 27.5 
28210 364 4 13.2679 16 27.5 
28201 364 4 14.5 15.866 27.5 
28200 364 4 15.5 15.866 27.5 
28206 364 4 16.7321 16 27.5 
28209 364 4 14 16.7321 27.5 
28207 364 4 16 16.7321 27.5 
28385 373 4 15 13 30.8 
28383 373 4 13.2679 14 30.8 
28384 373 4 14 13.2679 30.8 
28374 373 4 14.5 14.134 30.8 
28375 373 4 15.5 14.134 30.8 
28386 373 4 16 13.2679 30.8 
28387 373 4 16.7321 14 30.8 
28382 373 4 13 15 30.8 
28373 373 4 14 15 30.8 
28369 373 4 15 15 30.8 
28370 373 4 16 15 30.8 
28381 373 4 13.2679 16 30.8 
28372 373 4 14.5 15.866 30.8 
28371 373 4 15.5 15.866 30.8 
28377 373 4 16.7321 16 30.8 
28380 373 4 14 16.7321 30.8 
28378 373 4 16 16.7321 30.8 
27334 318 4 15 17 6.6 
27486 326 4 15 17 11 
27562 330 4 15 17 12.1 
27638 334 4 15 17 14.3 
27695 337 4 15 17 15.4 
27771 341 4 15 17 17.6 
28075 357 4 15 17 25.3 
28208 364 4 15 17 27.5 
28379 373 4 15 17 30.8 
27358 319 4 14 23.2679 6.6 
27359 319 4 15 23 6.6 
27360 319 4 16 23.2679 6.6 
27357 319 4 13.2679 24 6.6 
27348 319 4 14.5 24.134 6.6 
27349 319 4 15.5 24.134 6.6 
27361 319 4 16.7321 24 6.6 
27356 319 4 13 25 6.6 
27347 319 4 14 25 6.6 
27343 319 4 15 25 6.6 
27344 319 4 16 25 6.6 
27355 319 4 13.2679 26 6.6 
27346 319 4 14.5 25.866 6.6 
27345 319 4 15.5 25.866 6.6 
27351 319 4 16.7321 26 6.6 
27354 319 4 14 26.7321 6.6 
27353 319 4 15 27 6.6 
27352 319 4 16 26.7321 6.6 
27415 322 4 14 23.2679 8.8 
27416 322 4 15 23 8.8 
27417 322 4 16 23.2679 8.8 
27414 322 4 13.2679 24 8.8 
27405 322 4 14.5 24.134 8.8 
27406 322 4 15.5 24.134 8.8 
27418 322 4 16.7321 24 8.8 
27413 322 4 13 25 8.8 
27404 322 4 14 25 8.8 
27400 322 4 15 25 8.8 
27401 322 4 16 25 8.8 
27412 322 4 13.2679 26 8.8 
27403 322 4 14.5 25.866 8.8 
27402 322 4 15.5 25.866 8.8 
27408 322 4 16.7321 26 8.8 
27411 322 4 14 26.7321 8.8 
27410 322 4 15 27 8.8 
27409 322 4 16 26.7321 8.8 
27472 325 4 14 23.2679 9.9 
27473 325 4 15 23 9.9 
27474 325 4 16 23.2679 9.9 
27471 325 4 13.2679 24 9.9 
27462 325 4 14.5 24.134 9.9 
27463 325 4 15.5 24.134 9.9 
27475 325 4 16.7321 24 9.9 
27470 325 4 13 25 9.9 
27461 325 4 14 25 9.9 
27457 325 4 15 25 9.9 
27458 325 4 16 25 9.9 
27469 325 4 13.2679 26 9.9 
27460 325 4 14.5 25.866 9.9 
27459 325 4 15.5 25.866 9.9 
27465 325 4 16.7321 26 9.9 
27468 325 4 14 26.7321 9.9 
27467 325 4 15 27 9.9 
27466 325 4 16 26.7321 9.9 
27624 333 4 14 23.2679 13.2 
27625 333 4 15 23 13.2 
27626 333 4 16 23.2679 13.2 
27623 333 4 13.2679 24 13.2 
27614 333 4 14.5 24.134 13.2 
27615 333 4 15.5 24.134 13.2 
27627 333 4 16.7321 24 13.2 
27622 333 4 13 25 13.2 
27613 333 4 14 25 13.2 
27609 333 4 15 25 13.2 
27610 333 4 16 25 13.2 
27621 333 4 13.2679 26 13.2 
27612 333 4 14.5 25.866 13.2 
27611 333 4 15.5 25.866 13.2 
27617 333 4 16.7321 26 13.2 
27620 333 4 14 26.7321 13.2 
27619 333 4 15 27 13.2 
27618 333 4 16 26.7321 13.2 
27947 350 4 14 23.2679 20.9 
27948 350 4 15 23 20.9 
27949 350 4 16 23.2679 20.9 
27946 350 4 13.2679 24 20.9 
27937 350 4 14.5 24.134 20.9 
27938 350 4 15.5 24.134 20.9 
27950 350 4 16.7321 24 20.9 
27945 350 4 13 25 20.9 
27936 350 4 14 25 20.9 
27932 350 4 15 25 20.9 
27933 350 4 16 25 20.9 
27944 350 4 13.2679 26 20.9 
27935 350 4 14.5 25.866 20.9 
27934 350 4 15.5 25.866 20.9 
27940 350 4 16.7321 26 20.9 
27943 350 4 14 26.7321 20.9 
27942 350 4 15 27 20.9 
27941 350 4 16 26.7321 20.9 
28137 360 4 14 23.2679 26.4 
28138 360 4 15 23 26.4 
28139 360 4 16 23.2679 26.4 
28136 360 4 13.2679 24 26.4 
28127 360 4 14.5 24.134 26.4 
28128 360 4 15.5 24.134 26.4 
28140 360 4 16.7321 24 26.4 
28135 360 4 13 25 26.4 
28126 360 4 14 25 26.4 
28122 360 4 15 25 26.4 
28123 360 4 16 25 26.4 
28134 360 4 13.2679 26 26.4 
28125 360 4 14.5 25.866 26.4 
28124 360 4 15.5 25.866 26.4 
28130 360 4 16.7321 26 26.4 
28133 360 4 14 26.7321 26.4 
28132 360 4 15 27 26.4 
28131 360 4 16 26.7321 26.4 
28251 366 4 14 23.2679 27.5 
28252 366 4 15 23 27.5 
28253 366 4 16 23.2679 27.5 
28250 366 4 13.2679 24 27.5 
28241 366 4 14.5 24.134 27.5 
28242 366 4 15.5 24.134 27.5 
28254 366 4 16.7321 24 27.5 
28249 366 4 13 25 27.5 
28240 366 4 14 25 27.5 
28236 366 4 15 25 27.5 
28237 366 4 16 25 27.5 
28248 366 4 13.2679 26 27.5 
28239 366 4 14.5 25.866 27.5 
28238 366 4 15.5 25.866 27.5 
28244 366 4 16.7321 26 27.5 
28247 366 4 14 26.7321 27.5 
28246 366 4 15 27 27.5 
28245 366 4 16 26.7321 27.5 
28422 375 4 14 23.2679 31.9 
28423 375 4 15 23 31.9 
28424 375 4 16 23.2679 31.9 
28421 375 4 13.2679 24 31.9 
28412 375 4 14.5 24.134 31.9 
28413 375 4 15.5 24.134 31.9 
28425 375 4 16.7321 24 31.9 
28420 375 4 13 25 31.9 
28411 375 4 14 25 31.9 
28407 375 4 15 25 31.9 
28408 375 4 16 25 31.9 
28419 375 4 13.2679 26 31.9 
28410 375 4 14.5 25.866 31.9 
28409 375 4 15.5 25.866 31.9 
28415 375 4 16.7321 26 31.9 
28418 375 4 14 26.7321 31.9 
28417 375 4 15 27 31.9 
28416 375 4 16 26.7321 31.9 
27084 305 4 17 5 2.2 
27160 309 4 17 5 3.3 
27521 328 4 17 5 12.1 
27597 332 4 17 5 13.2 
27749 340 4 17 5 17.6 
27844 345 4 17 5 19.8 
28167 362 4 17 5 27.5 
28300 369 4 17 5 29.7 
28395 374 4 17 5 31.9 
27331 318 4 17 15 6.6 
27483 326 4 17 15 11 
27559 330 4 17 15 12.1 
27635 334 4 17 15 14.3 
27692 337 4 17 15 15.4 
27768 341 4 17 15 17.6 
28072 357 4 17 15 25.3 
28205 364 4 17 15 27.5 
28376 373 4 17 15 30.8 
27350 319 4 17 25 6.6 
27407 322 4 17 25 8.8 
27464 325 4 17 25 9.9 
27616 333 4 17 25 13.2 
27939 350 4 17 25 20.9 
28129 360 4 17 25 26.4 
28243 366 4 17 25 27.5 
28414 375 4 17 25 31.9 
27187 310 4 24 3.26795 3.3 
27188 310 4 25 3 3.3 
27189 310 4 26 3.26795 3.3 
27186 310 4 23.2679 4 3.3 
27177 310 4 24.5 4.13398 3.3 
27178 310 4 25.5 4.13398 3.3 
27190 310 4 26.7321 4 3.3 
27185 310 4 23 5 3.3 
27176 310 4 24 5 3.3 
27172 310 4 25 5 3.3 
27173 310 4 26 5 3.3 
27179 310 4 27 5 3.3 
27244 313 4 24 3.26795 4.4 
27245 313 4 25 3 4.4 
27246 313 4 26 3.26795 4.4 
27243 313 4 23.2679 4 4.4 
27234 313 4 24.5 4.13398 4.4 
27235 313 4 25.5 4.13398 4.4 
27247 313 4 26.7321 4 4.4 
27242 313 4 23 5 4.4 
27233 313 4 24 5 4.4 
27229 313 4 25 5 4.4 
27230 313 4 26 5 4.4 
27236 313 4 27 5 4.4 
27301 316 4 24 3.26795 5.5 
27302 316 4 25 3 5.5 
27303 316 4 26 3.26795 5.5 
27300 316 4 23.2679 4 5.5 
27291 316 4 24.5 4.13398 5.5 
27292 316 4 25.5 4.13398 5.5 
27304 316 4 26.7321 4 5.5 
27299 316 4 23 5 5.5 
27290 316 4 24 5 5.5 
27286 316 4 25 5 5.5 
27287 316 4 26 5 5.5 
27293 316 4 27 5 5.5 
28289 368 4 24 3.26795 28.6 
28290 368 4 25 3 28.6 
28291 368 4 26 3.26795 28.6 
28288 368 4 23.2679 4 28.6 
28279 368 4 24.5 4.13398 28.6 
28280 368 4 25.5 4.13398 28.6 
28292 368 4 26.7321 4 28.6 
28287 368 4 23 5 28.6 
28278 368 4 24 5 28.6 
28274 368 4 25 5 28.6 
28275 368 4 26 5 28.6 
28281 368 4 27 5 28.6 
27184 310 4 23.2679 6 3.3 
27175 310 4 24.5 5.86602 3.3 
27174 310 4 25.5 5.86602 3.3 
27180 310 4 26.7321 6 3.3 
27183 310 4 24 6.73205 3.3 
27182 310 4 25 7 3.3 
27181 310 4 26 6.73205 3.3 
27241 313 4 23.2679 6 4.4 
27232 313 4 24.5 5.86602 4.4 
27231 313 4 25.5 5.86602 4.4 
27237 313 4 26.7321 6 4.4 
27240 313 4 24 6.73205 4.4 
27239 313 4 25 7 4.4 
27238 313 4 26 6.73205 4.4 
27298 316 4 23.2679 6 5.5 
27289 316 4 24.5 5.86602 5.5 
27288 316 4 25.5 5.86602 5.5 
27294 316 4 26.7321 6 5.5 
27297 316 4 24 6.73205 5.5 
27296 316 4 25 7 5.5 
27295 316 4 26 6.73205 5.5 
28286 368 4 23.2679 6 28.6 
28277 368 4 24.5 5.86602 28.6 
28276 368 4 25.5 5.86602 28.6 
28282 368 4 26.7321 6 28.6 
28285 368 4 24 6.73205 28.6 
28284 368 4 25 7 28.6 
28283 368 4 26 6.73205 28.6 
27036 302 4 25 13 0 
27034 302 4 23.2679 14 0 
27025 302 4 24.5 14.134 0 
27035 302 4 24 13.2679 0 
27026 302 4 25.5 14.134 0 
27037 302 4 26 13.2679 0 
27038 302 4 26.7321 14 0 
27033 302 4 23 15 0 
27024 302 4 24 15 0 
27020 302 4 25 15 0 
27021 302 4 26 15 0 
27027 302 4 27 15 0 
27032 302 4 23.2679 16 0 
27023 302 4 24.5 15.866 0 
27022 302 4 25.5 15.866 0 
27028 302 4 26.7321 16 0 
27031 302 4 24 16.7321 0 
27029 302 4 26 16.7321 0 
27397 321 4 25 13 8.8 
27395 321 4 23.2679 14 8.8 
27386 321 4 24.5 14.134 8.8 
27396 321 4 24 13.2679 8.8 
27387 321 4 25.5 14.134 8.8 
27398 321 4 26 13.2679 8.8 
27399 321 4 26.7321 14 8.8 
27394 321 4 23 15 8.8 
27385 321 4 24 15 8.8 