ITEM: TIMESTEP
0
ITEM: NUMBER OF ATOMS
950
ITEM: BOX BOUNDS pp pp pp
0.0000000000000000e+00 3.3789999999999999e+01
0.0000000000000000e+00 3.3789999999999999e+01
0.0000000000000000e+00 3.3789999999999999e+01
ITEM: ATOMS id mol type x y z 
27491 326 4 4 3.26795 16.5 
27492 326 4 5 3 16.5 
27490 326 4 3.26795 4 16.5 
27481 326 4 4.5 4.13398 16.5 
27482 326 4 5.5 4.13398 16.5 
27489 326 4 3 5 16.5 
27480 326 4 4 5 16.5 
27476 326 4 5 5 16.5 
27586 331 4 4 3.26795 18.7 
27587 331 4 5 3 18.7 
27585 331 4 3.26795 4 18.7 
27576 331 4 4.5 4.13398 18.7 
27577 331 4 5.5 4.13398 18.7 
27584 331 4 3 5 18.7 
27575 331 4 4 5 18.7 
27571 331 4 5 5 18.7 
27776 341 4 4 3.26795 27.5 
27777 341 4 5 3 27.5 
27775 341 4 3.26795 4 27.5 
27766 341 4 4.5 4.13398 27.5 
27767 341 4 5.5 4.13398 27.5 
27774 341 4 3 5 27.5 
27765 341 4 4 5 27.5 
27761 341 4 5 5 27.5 
27833 344 4 4 3.26795 28.6 
27834 344 4 5 3 28.6 
27832 344 4 3.26795 4 28.6 
27823 344 4 4.5 4.13398 28.6 
27824 344 4 5.5 4.13398 28.6 
27831 344 4 3 5 28.6 
27822 344 4 4 5 28.6 
27818 344 4 5 5 28.6 
27928 349 4 4 3.26795 31.9 
27929 349 4 5 3 31.9 
27927 349 4 3.26795 4 31.9 
27918 349 4 4.5 4.13398 31.9 
27919 349 4 5.5 4.13398 31.9 
27926 349 4 3 5 31.9 
27917 349 4 4 5 31.9 
27913 349 4 5 5 31.9 
27488 326 4 3.26795 6 16.5 
27479 326 4 4.5 5.86602 16.5 
27478 326 4 5.5 5.86602 16.5 
27487 326 4 4 6.73205 16.5 
27486 326 4 5 7 16.5 
27583 331 4 3.26795 6 18.7 
27574 331 4 4.5 5.86602 18.7 
27573 331 4 5.5 5.86602 18.7 
27582 331 4 4 6.73205 18.7 
27581 331 4 5 7 18.7 
27773 341 4 3.26795 6 27.5 
27764 341 4 4.5 5.86602 27.5 
27763 341 4 5.5 5.86602 27.5 
27772 341 4 4 6.73205 27.5 
27771 341 4 5 7 27.5 
27830 344 4 3.26795 6 28.6 
27821 344 4 4.5 5.86602 28.6 
27820 344 4 5.5 5.86602 28.6 
27829 344 4 4 6.73205 28.6 
27828 344 4 5 7 28.6 
27925 349 4 3.26795 6 31.9 
27916 349 4 4.5 5.86602 31.9 
27915 349 4 5.5 5.86602 31.9 
27924 349 4 4 6.73205 31.9 
27923 349 4 5 7 31.9 
27112 306 4 5 13 3.3 
27110 306 4 3.26795 14 3.3 
27111 306 4 4 13.2679 3.3 
27109 306 4 3 15 3.3 
27100 306 4 4 15 3.3 
27101 306 4 4.5 14.134 3.3 
27096 306 4 5 15 3.3 
27102 306 4 5.5 14.134 3.3 
27099 306 4 4.5 15.866 3.3 
27098 306 4 5.5 15.866 3.3 
27108 306 4 3.26795 16 3.3 
27107 306 4 4 16.7321 3.3 
27283 315 4 5 13 8.8 
27281 315 4 3.26795 14 8.8 
27282 315 4 4 13.2679 8.8 
27280 315 4 3 15 8.8 
27271 315 4 4 15 8.8 
27272 315 4 4.5 14.134 8.8 
27267 315 4 5 15 8.8 
27273 315 4 5.5 14.134 8.8 
27270 315 4 4.5 15.866 8.8 
27269 315 4 5.5 15.866 8.8 
27279 315 4 3.26795 16 8.8 
27278 315 4 4 16.7321 8.8 
27378 320 4 5 13 12.1 
27376 320 4 3.26795 14 12.1 
27377 320 4 4 13.2679 12.1 
27375 320 4 3 15 12.1 
27366 320 4 4 15 12.1 
27367 320 4 4.5 14.134 12.1 
27362 320 4 5 15 12.1 
27368 320 4 5.5 14.134 12.1 
27365 320 4 4.5 15.866 12.1 
27364 320 4 5.5 15.866 12.1 
27374 320 4 3.26795 16 12.1 
27373 320 4 4 16.7321 12.1 
27416 322 4 5 13 14.3 
27414 322 4 3.26795 14 14.3 
27415 322 4 4 13.2679 14.3 
27413 322 4 3 15 14.3 
27404 322 4 4 15 14.3 
27405 322 4 4.5 14.134 14.3 
27400 322 4 5 15 14.3 
27406 322 4 5.5 14.134 14.3 
27403 322 4 4.5 15.866 14.3 
27402 322 4 5.5 15.866 14.3 
27412 322 4 3.26795 16 14.3 
27411 322 4 4 16.7321 14.3 
27530 328 4 5 13 16.5 
27528 328 4 3.26795 14 16.5 
27529 328 4 4 13.2679 16.5 
27527 328 4 3 15 16.5 
27518 328 4 4 15 16.5 
27519 328 4 4.5 14.134 16.5 
27514 328 4 5 15 16.5 
27520 328 4 5.5 14.134 16.5 
27517 328 4 4.5 15.866 16.5 
27516 328 4 5.5 15.866 16.5 
27526 328 4 3.26795 16 16.5 
27525 328 4 4 16.7321 16.5 
27549 329 4 5 13 17.6 
27547 329 4 3.26795 14 17.6 
27548 329 4 4 13.2679 17.6 
27546 329 4 3 15 17.6 
27537 329 4 4 15 17.6 
27538 329 4 4.5 14.134 17.6 
27533 329 4 5 15 17.6 
27539 329 4 5.5 14.134 17.6 
27536 329 4 4.5 15.866 17.6 
27535 329 4 5.5 15.866 17.6 
27545 329 4 3.26795 16 17.6 
27544 329 4 4 16.7321 17.6 
27606 332 4 5 13 19.8 
27604 332 4 3.26795 14 19.8 
27605 332 4 4 13.2679 19.8 
27603 332 4 3 15 19.8 
27594 332 4 4 15 19.8 
27595 332 4 4.5 14.134 19.8 
27590 332 4 5 15 19.8 
27596 332 4 5.5 14.134 19.8 
27593 332 4 4.5 15.866 19.8 
27592 332 4 5.5 15.866 19.8 
27602 332 4 3.26795 16 19.8 
27601 332 4 4 16.7321 19.8 
27739 339 4 5 13 25.3 
27737 339 4 3.26795 14 25.3 
27738 339 4 4 13.2679 25.3 
27736 339 4 3 15 25.3 
27727 339 4 4 15 25.3 
27728 339 4 4.5 14.134 25.3 
27723 339 4 5 15 25.3 
27729 339 4 5.5 14.134 25.3 
27726 339 4 4.5 15.866 25.3 
27725 339 4 5.5 15.866 25.3 
27735 339 4 3.26795 16 25.3 
27734 339 4 4 16.7321 25.3 
27758 340 4 5 13 26.4 
27756 340 4 3.26795 14 26.4 
27757 340 4 4 13.2679 26.4 
27755 340 4 3 15 26.4 
27746 340 4 4 15 26.4 
27747 340 4 4.5 14.134 26.4 
27742 340 4 5 15 26.4 
27748 340 4 5.5 14.134 26.4 
27745 340 4 4.5 15.866 26.4 
27744 340 4 5.5 15.866 26.4 
27754 340 4 3.26795 16 26.4 
27753 340 4 4 16.7321 26.4 
27853 345 4 5 13 28.6 
27851 345 4 3.26795 14 28.6 
27852 345 4 4 13.2679 28.6 
27850 345 4 3 15 28.6 
27841 345 4 4 15 28.6 
27842 345 4 4.5 14.134 28.6 
27837 345 4 5 15 28.6 
27843 345 4 5.5 14.134 28.6 
27840 345 4 4.5 15.866 28.6 
27839 345 4 5.5 15.866 28.6 
27849 345 4 3.26795 16 28.6 
27848 345 4 4 16.7321 28.6 
27106 306 4 5 17 3.3 
27277 315 4 5 17 8.8 
27372 320 4 5 17 12.1 
27410 322 4 5 17 14.3 
27524 328 4 5 17 16.5 
27543 329 4 5 17 17.6 
27600 332 4 5 17 19.8 
27733 339 4 5 17 25.3 
27752 340 4 5 17 26.4 
27847 345 4 5 17 28.6 
27054 303 4 4 23.2679 1.1 
27055 303 4 5 23 1.1 
27053 303 4 3.26795 24 1.1 
27044 303 4 4.5 24.134 1.1 
27045 303 4 5.5 24.134 1.1 
27052 303 4 3 25 1.1 
27043 303 4 4 25 1.1 
27039 303 4 5 25 1.1 
27051 303 4 3.26795 26 1.1 
27042 303 4 4.5 25.866 1.1 
27041 303 4 5.5 25.866 1.1 
27050 303 4 4 26.7321 1.1 
27049 303 4 5 27 1.1 
27073 304 4 4 23.2679 2.2 
27074 304 4 5 23 2.2 
27072 304 4 3.26795 24 2.2 
27063 304 4 4.5 24.134 2.2 
27064 304 4 5.5 24.134 2.2 
27071 304 4 3 25 2.2 
27062 304 4 4 25 2.2 
27058 304 4 5 25 2.2 
27070 304 4 3.26795 26 2.2 
27061 304 4 4.5 25.866 2.2 
27060 304 4 5.5 25.866 2.2 
27069 304 4 4 26.7321 2.2 
27068 304 4 5 27 2.2 
27187 310 4 4 23.2679 5.5 
27188 310 4 5 23 5.5 
27186 310 4 3.26795 24 5.5 
27177 310 4 4.5 24.134 5.5 
27178 310 4 5.5 24.134 5.5 
27185 310 4 3 25 5.5 
27176 310 4 4 25 5.5 
27172 310 4 5 25 5.5 
27184 310 4 3.26795 26 5.5 
27175 310 4 4.5 25.866 5.5 
27174 310 4 5.5 25.866 5.5 
27183 310 4 4 26.7321 5.5 
27182 310 4 5 27 5.5 
27320 317 4 4 23.2679 9.9 
27321 317 4 5 23 9.9 
27319 317 4 3.26795 24 9.9 
27310 317 4 4.5 24.134 9.9 
27311 317 4 5.5 24.134 9.9 
27318 317 4 3 25 9.9 
27309 317 4 4 25 9.9 
27305 317 4 5 25 9.9 
27317 317 4 3.26795 26 9.9 
27308 317 4 4.5 25.866 9.9 
27307 317 4 5.5 25.866 9.9 
27316 317 4 4 26.7321 9.9 
27315 317 4 5 27 9.9 
27453 324 4 4 23.2679 15.4 
27454 324 4 5 23 15.4 
27452 324 4 3.26795 24 15.4 
27443 324 4 4.5 24.134 15.4 
27444 324 4 5.5 24.134 15.4 
27451 324 4 3 25 15.4 
27442 324 4 4 25 15.4 
27438 324 4 5 25 15.4 
27450 324 4 3.26795 26 15.4 
27441 324 4 4.5 25.866 15.4 
27440 324 4 5.5 25.866 15.4 
27449 324 4 4 26.7321 15.4 
27448 324 4 5 27 15.4 
27681 336 4 4 23.2679 22 
27682 336 4 5 23 22 
27680 336 4 3.26795 24 22 
27671 336 4 4.5 24.134 22 
27672 336 4 5.5 24.134 22 
27679 336 4 3 25 22 
27670 336 4 4 25 22 
27666 336 4 5 25 22 
27678 336 4 3.26795 26 22 
27669 336 4 4.5 25.866 22 
27668 336 4 5.5 25.866 22 
27677 336 4 4 26.7321 22 
27676 336 4 5 27 22 
27493 326 4 6 3.26795 16.5 
27494 326 4 6.73205 4 16.5 
27477 326 4 6 5 16.5 
27483 326 4 7 5 16.5 
27588 331 4 6 3.26795 18.7 
27589 331 4 6.73205 4 18.7 
27572 331 4 6 5 18.7 
27578 331 4 7 5 18.7 
27778 341 4 6 3.26795 27.5 
27779 341 4 6.73205 4 27.5 
27762 341 4 6 5 27.5 
27768 341 4 7 5 27.5 
27835 344 4 6 3.26795 28.6 
27836 344 4 6.73205 4 28.6 
27819 344 4 6 5 28.6 
27825 344 4 7 5 28.6 
27930 349 4 6 3.26795 31.9 
27931 349 4 6.73205 4 31.9 
27914 349 4 6 5 31.9 
27920 349 4 7 5 31.9 
27484 326 4 6.73205 6 16.5 
27485 326 4 6 6.73205 16.5 
27579 331 4 6.73205 6 18.7 
27580 331 4 6 6.73205 18.7 
27769 341 4 6.73205 6 27.5 
27770 341 4 6 6.73205 27.5 
27826 344 4 6.73205 6 28.6 
27827 344 4 6 6.73205 28.6 
27921 349 4 6.73205 6 31.9 
27922 349 4 6 6.73205 31.9 
27113 306 4 6 13.2679 3.3 
27114 306 4 6.73205 14 3.3 
27097 306 4 6 15 3.3 
27103 306 4 7 15 3.3 
27105 306 4 6 16.7321 3.3 
27104 306 4 6.73205 16 3.3 
27284 315 4 6 13.2679 8.8 
27285 315 4 6.73205 14 8.8 
27268 315 4 6 15 8.8 
27274 315 4 7 15 8.8 
27276 315 4 6 16.7321 8.8 
27275 315 4 6.73205 16 8.8 
27379 320 4 6 13.2679 12.1 
27380 320 4 6.73205 14 12.1 
27363 320 4 6 15 12.1 
27369 320 4 7 15 12.1 
27371 320 4 6 16.7321 12.1 
27370 320 4 6.73205 16 12.1 
27417 322 4 6 13.2679 14.3 
27418 322 4 6.73205 14 14.3 
27401 322 4 6 15 14.3 
27407 322 4 7 15 14.3 
27409 322 4 6 16.7321 14.3 
27408 322 4 6.73205 16 14.3 
27531 328 4 6 13.2679 16.5 
27532 328 4 6.73205 14 16.5 
27515 328 4 6 15 16.5 
27521 328 4 7 15 16.5 
27523 328 4 6 16.7321 16.5 
27522 328 4 6.73205 16 16.5 
27550 329 4 6 13.2679 17.6 
27551 329 4 6.73205 14 17.6 
27534 329 4 6 15 17.6 
27540 329 4 7 15 17.6 
27542 329 4 6 16.7321 17.6 
27541 329 4 6.73205 16 17.6 
27607 332 4 6 13.2679 19.8 
27608 332 4 6.73205 14 19.8 
27591 332 4 6 15 19.8 
27597 332 4 7 15 19.8 
27599 332 4 6 16.7321 19.8 
27598 332 4 6.73205 16 19.8 
27740 339 4 6 13.2679 25.3 
27741 339 4 6.73205 14 25.3 
27724 339 4 6 15 25.3 
27730 339 4 7 15 25.3 
27732 339 4 6 16.7321 25.3 
27731 339 4 6.73205 16 25.3 
27759 340 4 6 13.2679 26.4 
27760 340 4 6.73205 14 26.4 
27743 340 4 6 15 26.4 
27749 340 4 7 15 26.4 
27751 340 4 6 16.7321 26.4 
27750 340 4 6.73205 16 26.4 
27854 345 4 6 13.2679 28.6 
27855 345 4 6.73205 14 28.6 
27838 345 4 6 15 28.6 
27844 345 4 7 15 28.6 
27846 345 4 6 16.7321 28.6 
27845 345 4 6.73205 16 28.6 
27056 303 4 6 23.2679 1.1 
27057 303 4 6.73205 24 1.1 
27040 303 4 6 25 1.1 
27046 303 4 7 25 1.1 
27047 303 4 6.73205 26 1.1 
27048 303 4 6 26.7321 1.1 
27075 304 4 6 23.2679 2.2 
27076 304 4 6.73205 24 2.2 
27059 304 4 6 25 2.2 
27065 304 4 7 25 2.2 
27066 304 4 6.73205 26 2.2 
27067 304 4 6 26.7321 2.2 
27189 310 4 6 23.2679 5.5 
27190 310 4 6.73205 24 5.5 
27173 310 4 6 25 5.5 
27179 310 4 7 25 5.5 
27180 310 4 6.73205 26 5.5 
27181 310 4 6 26.7321 5.5 
27322 317 4 6 23.2679 9.9 
27323 317 4 6.73205 24 9.9 
27306 317 4 6 25 9.9 
27312 317 4 7 25 9.9 
27313 317 4 6.73205 26 9.9 
27314 317 4 6 26.7321 9.9 
27455 324 4 6 23.2679 15.4 
27456 324 4 6.73205 24 15.4 
27439 324 4 6 25 15.4 
27445 324 4 7 25 15.4 
27446 324 4 6.73205 26 15.4 
27447 324 4 6 26.7321 15.4 
27683 336 4 6 23.2679 22 
27684 336 4 6.73205 24 22 
27667 336 4 6 25 22 
27673 336 4 7 25 22 
27674 336 4 6.73205 26 22 
27675 336 4 6 26.7321 22 
27206 311 4 14 3.26795 6.6 
27207 311 4 15 3 6.6 
27208 311 4 16 3.26795 6.6 
27205 311 4 13.2679 4 6.6 
27196 311 4 14.5 4.13398 6.6 
27197 311 4 15.5 4.13398 6.6 
27209 311 4 16.7321 4 6.6 
27204 311 4 13 5 6.6 
27195 311 4 14 5 6.6 
27191 311 4 15 5 6.6 
27192 311 4 16 5 6.6 
27263 314 4 14 3.26795 8.8 
27264 314 4 15 3 8.8 
27265 314 4 16 3.26795 8.8 
27262 314 4 13.2679 4 8.8 
27253 314 4 14.5 4.13398 8.8 
27254 314 4 15.5 4.13398 8.8 
27266 314 4 16.7321 4 8.8 
27261 314 4 13 5 8.8 
27252 314 4 14 5 8.8 
27248 314 4 15 5 8.8 
27249 314 4 16 5 8.8 
27662 335 4 14 3.26795 20.9 
27663 335 4 15 3 20.9 
27664 335 4 16 3.26795 20.9 
27661 335 4 13.2679 4 20.9 
27652 335 4 14.5 4.13398 20.9 
27653 335 4 15.5 4.13398 20.9 
27665 335 4 16.7321 4 20.9 
27660 335 4 13 5 20.9 
27651 335 4 14 5 20.9 
27647 335 4 15 5 20.9 
27648 335 4 16 5 20.9 
27700 337 4 14 3.26795 23.1 
27701 337 4 15 3 23.1 
27702 337 4 16 3.26795 23.1 
27699 337 4 13.2679 4 23.1 
27690 337 4 14.5 4.13398 23.1 
27691 337 4 15.5 4.13398 23.1 
27703 337 4 16.7321 4 23.1 
27698 337 4 13 5 23.1 
27689 337 4 14 5 23.1 
27685 337 4 15 5 23.1 
27686 337 4 16 5 23.1 
27795 342 4 14 3.26795 27.5 
27796 342 4 15 3 27.5 
27797 342 4 16 3.26795 27.5 
27794 342 4 13.2679 4 27.5 
27785 342 4 14.5 4.13398 27.5 
27786 342 4 15.5 4.13398 27.5 
27798 342 4 16.7321 4 27.5 
27793 342 4 13 5 27.5 
27784 342 4 14 5 27.5 
27780 342 4 15 5 27.5 
27781 342 4 16 5 27.5 
27203 311 4 13.2679 6 6.6 
27194 311 4 14.5 5.86602 6.6 
27193 311 4 15.5 5.86602 6.6 
27199 311 4 16.7321 6 6.6 
27202 311 4 14 6.73205 6.6 
27201 311 4 15 7 6.6 
27200 311 4 16 6.73205 6.6 
27260 314 4 13.2679 6 8.8 
27251 314 4 14.5 5.86602 8.8 
27250 314 4 15.5 5.86602 8.8 
27256 314 4 16.7321 6 8.8 
27259 314 4 14 6.73205 8.8 
27258 314 4 15 7 8.8 
27257 314 4 16 6.73205 8.8 
27659 335 4 13.2679 6 20.9 
27650 335 4 14.5 5.86602 20.9 
27649 335 4 15.5 5.86602 20.9 
27655 335 4 16.7321 6 20.9 
27658 335 4 14 6.73205 20.9 
27657 335 4 15 7 20.9 
27656 335 4 16 6.73205 20.9 
27697 337 4 13.2679 6 23.1 
27688 337 4 14.5 5.86602 23.1 
27687 337 4 15.5 5.86602 23.1 
27693 337 4 16.7321 6 23.1 
27696 337 4 14 6.73205 23.1 
27695 337 4 15 7 23.1 
27694 337 4 16 6.73205 23.1 
27792 342 4 13.2679 6 27.5 
27783 342 4 14.5 5.86602 27.5 
27782 342 4 15.5 5.86602 27.5 
27788 342 4 16.7321 6 27.5 
27791 342 4 14 6.73205 27.5 
27790 342 4 15 7 27.5 
27789 342 4 16 6.73205 27.5 
27169 309 4 15 13 5.5 
27167 309 4 13.2679 14 5.5 
27168 309 4 14 13.2679 5.5 
27170 309 4 16 13.2679 5.5 
27171 309 4 16.7321 14 5.5 
27166 309 4 13 15 5.5 
27157 309 4 14 15 5.5 
27153 309 4 15 15 5.5 
27158 309 4 14.5 14.134 5.5 
27159 309 4 15.5 14.134 5.5 
27154 309 4 16 15 5.5 
27156 309 4 14.5 15.866 5.5 
27155 309 4 15.5 15.866 5.5 
27164 309 4 14 16.7321 5.5 
27165 309 4 13.2679 16 5.5 
27161 309 4 16.7321 16 5.5 
27162 309 4 16 16.7321 5.5 
27340 318 4 15 13 11 
27338 318 4 13.2679 14 11 
27339 318 4 14 13.2679 11 
27341 318 4 16 13.2679 11 
27342 318 4 16.7321 14 11 
27337 318 4 13 15 11 
27328 318 4 14 15 11 
27324 318 4 15 15 11 
27329 318 4 14.5 14.134 11 
27330 318 4 15.5 14.134 11 
27325 318 4 16 15 11 
27327 318 4 14.5 15.866 11 
27326 318 4 15.5 15.866 11 
27335 318 4 14 16.7321 11 
27336 318 4 13.2679 16 11 
27332 318 4 16.7321 16 11 
27333 318 4 16 16.7321 11 
27872 346 4 15 13 28.6 
27870 346 4 13.2679 14 28.6 
27871 346 4 14 13.2679 28.6 
27873 346 4 16 13.2679 28.6 
27874 346 4 16.7321 14 28.6 
27869 346 4 13 15 28.6 
27860 346 4 14 15 28.6 
27856 346 4 15 15 28.6 
27861 346 4 14.5 14.134 28.6 
27862 346 4 15.5 14.134 28.6 
27857 346 4 16 15 28.6 
27859 346 4 14.5 15.866 28.6 
27858 346 4 15.5 15.866 28.6 
27867 346 4 14 16.7321 28.6 
27868 346 4 13.2679 16 28.6 
27864 346 4 16.7321 16 28.6 
27865 346 4 16 16.7321 28.6 
27891 347 4 15 13 30.8 
27889 347 4 13.2679 14 30.8 
27890 347 4 14 13.2679 30.8 
27892 347 4 16 13.2679 30.8 
27893 347 4 16.7321 14 30.8 
27888 347 4 13 15 30.8 
27879 347 4 14 15 30.8 
27875 347 4 15 15 30.8 
27880 347 4 14.5 14.134 30.8 
27881 347 4 15.5 14.134 30.8 
27876 347 4 16 15 30.8 
27878 347 4 14.5 15.866 30.8 
27877 347 4 15.5 15.866 30.8 
27886 347 4 14 16.7321 30.8 
27887 347 4 13.2679 16 30.8 
27883 347 4 16.7321 16 30.8 
27884 347 4 16 16.7321 30.8 
27163 309 4 15 17 5.5 
27334 318 4 15 17 11 
27866 346 4 15 17 28.6 
27885 347 4 15 17 30.8 
27016 301 4 14 23.2679 0 
27017 301 4 15 23 0 
27018 301 4 16 23.2679 0 
27015 301 4 13.2679 24 0 
27006 301 4 14.5 24.134 0 
27007 301 4 15.5 24.134 0 
27019 301 4 16.7321 24 0 
27014 301 4 13 25 0 
27005 301 4 14 25 0 
27001 301 4 15 25 0 
27002 301 4 16 25 0 
27013 301 4 13.2679 26 0 
27004 301 4 14.5 25.866 0 
27003 301 4 15.5 25.866 0 
27009 301 4 16.7321 26 0 
27012 301 4 14 26.7321 0 
27011 301 4 15 27 0 
27010 301 4 16 26.7321 0 
27225 312 4 14 23.2679 6.6 
27226 312 4 15 23 6.6 
27227 312 4 16 23.2679 6.6 
27224 312 4 13.2679 24 6.6 
27215 312 4 14.5 24.134 6.6 
27216 312 4 15.5 24.134 6.6 
27228 312 4 16.7321 24 6.6 
27223 312 4 13 25 6.6 
27214 312 4 14 25 6.6 
27210 312 4 15 25 6.6 
27211 312 4 16 25 6.6 
27222 312 4 13.2679 26 6.6 
27213 312 4 14.5 25.866 6.6 
27212 312 4 15.5 25.866 6.6 
27218 312 4 16.7321 26 6.6 
27221 312 4 14 26.7321 6.6 
27220 312 4 15 27 6.6 
27219 312 4 16 26.7321 6.6 
27244 313 4 14 23.2679 7.7 
27245 313 4 15 23 7.7 
27246 313 4 16 23.2679 7.7 
27243 313 4 13.2679 24 7.7 
27234 313 4 14.5 24.134 7.7 
27235 313 4 15.5 24.134 7.7 
27247 313 4 16.7321 24 7.7 
27242 313 4 13 25 7.7 
27233 313 4 14 25 7.7 
27229 313 4 15 25 7.7 
27230 313 4 16 25 7.7 
27241 313 4 13.2679 26 7.7 
27232 313 4 14.5 25.866 7.7 
27231 313 4 15.5 25.866 7.7 
27237 313 4 16.7321 26 7.7 
27240 313 4 14 26.7321 7.7 
27239 313 4 15 27 7.7 
27238 313 4 16 26.7321 7.7 
27301 316 4 14 23.2679 8.8 
27302 316 4 15 23 8.8 
27303 316 4 16 23.2679 8.8 
27300 316 4 13.2679 24 8.8 
27291 316 4 14.5 24.134 8.8 
27292 316 4 15.5 24.134 8.8 
27304 316 4 16.7321 24 8.8 
27299 316 4 13 25 8.8 
27290 316 4 14 25 8.8 
27286 316 4 15 25 8.8 
27287 316 4 16 25 8.8 
27298 316 4 13.2679 26 8.8 
27289 316 4 14.5 25.866 8.8 
27288 316 4 15.5 25.866 8.8 
27294 316 4 16.7321 26 8.8 
27297 316 4 14 26.7321 8.8 
27296 316 4 15 27 8.8 
27295 316 4 16 26.7321 8.8 
27472 325 4 14 23.2679 15.4 
27473 325 4 15 23 15.4 
27474 325 4 16 23.2679 15.4 
27471 325 4 13.2679 24 15.4 
27462 325 4 14.5 24.134 15.4 
27463 325 4 15.5 24.134 15.4 
27475 325 4 16.7321 24 15.4 
27470 325 4 13 25 15.4 
27461 325 4 14 25 15.4 
27457 325 4 15 25 15.4 
27458 325 4 16 25 15.4 
27469 325 4 13.2679 26 15.4 
27460 325 4 14.5 25.866 15.4 
27459 325 4 15.5 25.866 15.4 
27465 325 4 16.7321 26 15.4 
27468 325 4 14 26.7321 15.4 
27467 325 4 15 27 15.4 
27466 325 4 16 26.7321 15.4 
27719 338 4 14 23.2679 24.2 
27720 338 4 15 23 24.2 
27721 338 4 16 23.2679 24.2 
27718 338 4 13.2679 24 24.2 
27709 338 4 14.5 24.134 24.2 
27710 338 4 15.5 24.134 24.2 
27722 338 4 16.7321 24 24.2 
27717 338 4 13 25 24.2 
27708 338 4 14 25 24.2 
27704 338 4 15 25 24.2 
27705 338 4 16 25 24.2 
27716 338 4 13.2679 26 24.2 
27707 338 4 14.5 25.866 24.2 
27706 338 4 15.5 25.866 24.2 
27712 338 4 16.7321 26 24.2 
27715 338 4 14 26.7321 24.2 
27714 338 4 15 27 24.2 
27713 338 4 16 26.7321 24.2 
27947 350 4 14 23.2679 31.9 
27948 350 4 15 23 31.9 
27949 350 4 16 23.2679 31.9 
27946 350 4 13.2679 24 31.9 
27937 350 4 14.5 24.134 31.9 
27938 350 4 15.5 24.134 31.9 
27950 350 4 16.7321 24 31.9 
27945 350 4 13 25 31.9 
27936 350 4 14 25 31.9 
27932 350 4 15 25 31.9 
27933 350 4 16 25 31.9 
27944 350 4 13.2679 26 31.9 
27935 350 4 14.5 25.866 31.9 
27934 350 4 15.5 25.866 31.9 
27940 350 4 16.7321 26 31.9 
27943 350 4 14 26.7321 31.9 
27942 350 4 15 27 31.9 
27941 350 4 16 26.7321 31.9 
27198 311 4 17 5 6.6 
27255 314 4 17 5 8.8 
27654 335 4 17 5 20.9 
27692 337 4 17 5 23.1 
27787 342 4 17 5 27.5 
27160 309 4 17 15 5.5 
27331 318 4 17 15 11 
27863 346 4 17 15 28.6 
27882 347 4 17 15 30.8 
27008 301 4 17 25 0 
27217 312 4 17 25 6.6 
27236 313 4 17 25 7.7 
27293 316 4 17 25 8.8 
27464 325 4 17 25 15.4 
27711 338 4 17 25 24.2 
27939 350 4 17 25 31.9 
27149 308 4 24 3.26795 5.5 
27150 308 4 25 3 5.5 
27151 308 4 26 3.26795 5.5 
27148 308 4 23.2679 4 5.5 
27139 308 4 24.5 4.13398 5.5 
27140 308 4 25.5 4.13398 5.5 
27152 308 4 26.7321 4 5.5 
27147 308 4 23 5 5.5 
27138 308 4 24 5 5.5 
27134 308 4 25 5 5.5 
27135 308 4 26 5 5.5 
27141 308 4 27 5 5.5 
27510 327 4 24 3.26795 16.5 
27511 327 4 25 3 16.5 
27512 327 4 26 3.26795 16.5 
27509 327 4 23.2679 4 16.5 
27500 327 4 24.5 4.13398 16.5 
27501 327 4 25.5 4.13398 16.5 
27513 327 4 26.7321 4 16.5 
27508 327 4 23 5 16.5 
27499 327 4 24 5 16.5 
27495 327 4 25 5 16.5 
27496 327 4 26 5 16.5 
27502 327 4 27 5 16.5 
27146 308 4 23.2679 6 5.5 
27137 308 4 24.5 5.86602 5.5 
27136 308 4 25.5 5.86602 5.5 
27142 308 4 26.7321 6 5.5 
27145 308 4 24 6.73205 5.5 
27144 308 4 25 7 5.5 
27143 308 4 26 6.73205 5.5 
27507 327 4 23.2679 6 16.5 
27498 327 4 24.5 5.86602 16.5 
27497 327 4 25.5 5.86602 16.5 
27503 327 4 26.7321 6 16.5 
27506 327 4 24 6.73205 16.5 
27505 327 4 25 7 16.5 
27504 327 4 26 6.73205 16.5 
27036 302 4 25 13 1.1 
27034 302 4 23.2679 14 1.1 
27035 302 4 24 13.2679 1.1 
27037 302 4 26 13.2679 1.1 
27038 302 4 26.7321 14 1.1 
27033 302 4 23 15 1.1 
27024 302 4 24 15 1.1 
27020 302 4 25 15 1.1 
27025 302 4 24.5 14.134 1.1 
27021 302 4 26 15 1.1 
27026 302 4 25.5 14.134 1.1 
27027 302 4 27 15 1.1 
27023 302 4 24.5 15.866 1.1 
27022 302 4 25.5 15.866 1.1 
27032 302 4 23.2679 16 1.1 
27031 302 4 24 16.7321 1.1 
27029 302 4 26 16.7321 1.1 
27028 302 4 26.7321 16 1.1 
27131 307 4 25 13 4.4 
27129 307 4 23.2679 14 4.4 
27130 307 4 24 13.2679 4.4 
27132 307 4 26 13.2679 4.4 
27133 307 4 26.7321 14 4.4 
27128 307 4 23 15 4.4 
27119 307 4 24 15 4.4 
27115 307 4 25 15 4.4 
27120 307 4 24.5 14.134 4.4 
27116 307 4 26 15 4.4 
27121 307 4 25.5 14.134 4.4 
27122 307 4 27 15 4.4 
27118 307 4 24.5 15.866 4.4 
27117 307 4 25.5 15.866 4.4 
27127 307 4 23.2679 16 4.4 
27126 307 4 24 16.7321 4.4 
27124 307 4 26 16.7321 4.4 
27123 307 4 26.7321 16 4.4 
27435 323 4 25 13 15.4 
27433 323 4 23.2679 14 15.4 
27434 323 4 24 13.2679 15.4 
27436 323 4 26 13.2679 15.4 
27437 323 4 26.7321 14 15.4 
27432 323 4 23 15 15.4 
27423 323 4 24 15 15.4 
27419 323 4 25 15 15.4 
27424 323 4 24.5 14.134 15.4 
27420 323 4 26 15 15.4 
27425 323 4 25.5 14.134 15.4 
27426 323 4 27 15 15.4 
27422 323 4 24.5 15.866 15.4 
27421 323 4 25.5 15.866 15.4 
27431 323 4 23.2679 16 15.4 
27430 323 4 24 16.7321 15.4 
27428 323 4 26 16.7321 15.4 
27427 323 4 26.7321 16 15.4 
27568 330 4 25 13 17.6 
27566 330 4 23.2679 14 17.6 
27567 330 4 24 13.2679 17.6 
27569 330 4 26 13.2679 17.6 
27570 330 4 26.7321 14 17.6 
27565 330 4 23 15 17.6 
27556 330 4 24 15 17.6 
27552 330 4 25 15 17.6 
27557 330 4 24.5 14.134 17.6 
27553 330 4 26 15 17.6 
27558 330 4 25.5 14.134 17.6 
27559 330 4 27 15 17.6 
27555 330 4 24.5 15.866 17.6 
27554 330 4 25.5 15.866 17.6 
27564 330 4 23.2679 16 17.6 
27563 330 4 24 16.7321 17.6 
27561 330 4 26 16.7321 17.6 
27560 330 4 26.7321 16 17.6 
27625 333 4 25 13 19.8 
27623 333 4 23.2679 14 19.8 
27624 333 4 24 13.2679 19.8 
27626 333 4 26 13.2679 19.8 
27627 333 4 26.7321 14 19.8 
27622 333 4 23 15 19.8 
27613 333 4 24 15 19.8 
27609 333 4 25 15 19.8 
27614 333 4 24.5 14.134 19.8 
27610 333 4 26 15 19.8 
27615 333 4 25.5 14.134 19.8 
27616 333 4 27 15 19.8 
27612 333 4 24.5 15.866 19.8 
27611 333 4 25.5 15.866 19.8 
27621 333 4 23.2679 16 19.8 
27620 333 4 24 16.7321 19.8 
27618 333 4 26 16.7321 19.8 
27617 333 4 26.7321 16 19.8 
27030 302 4 25 17 1.1 
27125 307 4 25 17 4.4 
27429 323 4 25 17 15.4 
27562 330 4 25 17 17.6 
27619 333 4 25 17 19.8 
27092 305 4 24 23.2679 2.2 
27093 305 4 25 23 2.2 
27094 305 4 26 23.2679 2.2 
27091 305 4 23.2679 24 2.2 
27082 305 4 24.5 24.134 2.2 
27083 305 4 25.5 24.134 2.2 
27095 305 4 26.7321 24 2.2 
27090 305 4 23 25 2.2 
27081 305 4 24 25 2.2 
27077 305 4 25 25 2.2 
27078 305 4 26 25 2.2 
27084 305 4 27 25 2.2 
27089 305 4 23.2679 26 2.2 
27080 305 4 24.5 25.866 2.2 
27079 305 4 25.5 25.866 2.2 
27085 305 4 26.7321 26 2.2 
27088 305 4 24 26.7321 2.2 
27087 305 4 25 27 2.2 
27086 305 4 26 26.7321 2.2 
27358 319 4 24 23.2679 11 
27359 319 4 25 23 11 
27360 319 4 26 23.2679 11 
27357 319 4 23.2679 24 11 
27348 319 4 24.5 24.134 11 
27349 319 4 25.5 24.134 11 
27361 319 4 26.7321 24 11 
27356 319 4 23 25 11 
27347 319 4 24 25 11 
27343 319 4 25 25 11 
27344 319 4 26 25 11 
27350 319 4 27 25 11 
27355 319 4 23.2679 26 11 
27346 319 4 24.5 25.866 11 
27345 319 4 25.5 25.866 11 
27351 319 4 26.7321 26 11 
27354 319 4 24 26.7321 11 
27353 319 4 25 27 11 
27352 319 4 26 26.7321 11 
27396 321 4 24 23.2679 13.2 
27397 321 4 25 23 13.2 
27398 321 4 26 23.2679 13.2 
27395 321 4 23.2679 24 13.2 
27386 321 4 24.5 24.134 13.2 
27387 321 4 25.5 24.134 13.2 
27399 321 4 26.7321 24 13.2 
27394 321 4 23 25 13.2 
27385 321 4 24 25 13.2 
27381 321 4 25 25 13.2 
27382 321 4 26 25 13.2 
27388 321 4 27 25 13.2 
27393 321 4 23.2679 26 13.2 
27384 321 4 24.5 25.866 13.2 
27383 321 4 25.5 25.866 13.2 
27389 321 4 26.7321 26 13.2 
27392 321 4 24 26.7321 13.2 
27391 321 4 25 27 13.2 
27390 321 4 26 26.7321 13.2 
27643 334 4 24 23.2679 19.8 
27644 334 4 25 23 19.8 
27645 334 4 26 23.2679 19.8 
27642 334 4 23.2679 24 19.8 
27633 334 4 24.5 24.134 19.8 
27634 334 4 25.5 24.134 19.8 
27646 334 4 26.7321 24 19.8 
27641 334 4 23 25 19.8 
27632 334 4 24 25 19.8 
27628 334 4 25 25 19.8 
27629 334 4 26 25 19.8 
27635 334 4 27 25 19.8 
27640 334 4 23.2679 26 19.8 
27631 334 4 24.5 25.866 19.8 
27630 334 4 25.5 25.866 19.8 
27636 334 4 26.7321 26 19.8 
27639 334 4 24 26.7321 19.8 
27638 334 4 25 27 19.8 
27637 334 4 26 26.7321 19.8 
27814 343 4 24 23.2679 27.5 
27815 343 4 25 23 27.5 
27816 343 4 26 23.2679 27.5 
27813 343 4 23.2679 24 27.5 
27804 343 4 24.5 24.134 27.5 
27805 343 4 25.5 24.134 27.5 
27817 343 4 26.7321 24 27.5 
27812 343 4 23 25 27.5 
27803 343 4 24 25 27.5 
27799 343 4 25 25 27.5 
27800 343 4 26 25 27.5 
27806 343 4 27 25 27.5 
27811 343 4 23.2679 26 27.5 
27802 343 4 24.5 25.866 27.5 
27801 343 4 25.5 25.866 27.5 
27807 343 4 26.7321 26 27.5 
27810 343 4 24 26.7321 27.5 
27809 343 4 25 27 27.5 
27808 343 4 26 26.7321 27.5 
27909 348 4 24 23.2679 30.8 
27910 348 4 25 23 30.8 
27911 348 4 26 23.2679 30.8 
27908 348 4 23.2679 24 30.8 
27899 348 4 24.5 24.134 30.8 
27900 348 4 25.5 24.134 30.8 
27912 348 4 26.7321 24 30.8 
27907 348 4 23 25 30.8 
27898 348 4 24 25 30.8 
27894 348 4 25 25 30.8 
27895 348 4 26 25 30.8 
27901 348 4 27 25 30.8 
27906 348 4 23.2679 26 30.8 
27897 348 4 24.5 25.866 30.8 
27896 348 4 25.5 25.866 30.8 
27902 348 4 26.7321 26 30.8 
27905 348 4 24 26.7321 30.8 
27904 348 4 25 27 30.8 
27903 348 4 26 26.7321 30.8 
ITEM: TIMESTEP
100000
ITEM: NUMBER OF ATOMS
950
ITEM: BOX BOUNDS pp pp pp
0.0000000000000000e+00 3.3789999999999999e+01
0.0000000000000000e+00 3.3789999999999999e+01
0.0000000000000000e+00 3.3789999999999999e+01
ITEM: ATOMS id mol type x y z 
27913 349 4 3.09124 1.567 0.535999 
27914 349 4 3.98406 1.26868 0.198529 
27921 349 4 5.05316 1.30663 0.824204 
27927 349 4 1.12932 1.82737 0.247794 
27917 349 4 2.19842 1.86531 0.873468 
27915 349 4 3.8975 1.63983 1.12306 
27922 349 4 4.70376 1.71266 1.71012 
27926 349 4 1.30561 2.16363 1.21094 
27916 349 4 3.00468 1.93814 1.46053 
27925 349 4 1.96036 2.34002 1.99323 
27924 349 4 2.91813 2.30929 2.38506 
27923 349 4 3.92228 2.07966 2.28144 
27588 331 4 1.2662 3.27158 15.5428 
27484 326 4 1.21457 3.20183 15.5488 
27589 331 4 1.98044 3.97438 15.2825 
27483 326 4 1.91437 3.91428 15.2758 
27578 331 4 2.88413 4.44482 15.4665 
27494 326 4 2.81204 4.40087 15.4468 
27482 326 4 3.15994 3.80128 16.4741 
27587 331 4 0.932793 2.52474 16.1775 
27485 326 4 0.90015 2.45442 16.1924 
27478 326 4 1.77649 2.76288 16.5624 
27577 331 4 1.97684 3.1894 16.2415 
27477 326 4 2.2836 3.49282 16.1041 
27579 331 4 3.73512 4.55685 16.0453 
27572 331 4 2.7858 3.77602 16.2034 
27493 326 4 3.66705 4.53121 16.0158 
27492 326 4 4.2503 4.27038 16.8304 
27580 331 4 4.3054 4.28046 16.8639 
27486 326 4 1.05536 1.87231 17.0344 
27585 331 4 1.63983 1.65758 17.8353 
27487 326 4 1.63861 1.61148 17.849 
27476 326 4 2.65283 3.07135 16.9324 
27479 326 4 2.14572 2.34141 17.3907 
27575 331 4 2.58915 2.43842 17.6772 
27480 326 4 3.02206 2.64988 17.7606 
27481 326 4 3.52917 3.37981 17.3023 
27574 331 4 3.39811 3.02504 17.639 
27581 331 4 4.44216 3.6897 17.703 
27491 326 4 4.40551 3.68827 17.6723 
27576 331 4 1.87851 2.5206 16.9784 
27584 331 4 2.49083 1.76962 18.4141 
27488 326 4 2.49362 1.74182 18.418 
27583 331 4 3.39451 2.24006 18.598 
27489 326 4 3.39129 2.22841 18.5889 
27490 326 4 4.09109 2.94086 18.316 
27582 331 4 4.10875 2.94286 18.3378 
27586 331 4 1.06955 1.93398 17.0166 
27571 331 4 2.68748 3.10722 16.9403 
27573 331 4 3.49644 3.69384 16.9021 
27833 344 4 1.50888 0.0275184 26.3747 
27776 341 4 1.44457 -0.00450377 26.3155 
27832 344 4 0.536687 0.371699 26.4652 
27775 341 4 0.484322 0.369689 26.414 
27823 344 4 1.51584 0.612597 27.1857 
27766 341 4 1.47849 0.586446 27.1215 
27767 341 4 2.33491 0.69499 27.6262 
27824 344 4 2.36288 0.742835 27.701 
27835 344 4 3.20296 0.287994 27.4054 
27778 341 4 3.15742 0.212585 27.3249 
27822 344 4 0.675765 1.06744 27.4813 
27765 341 4 0.655975 1.06885 27.4227 
27761 341 4 1.5124 1.1774 27.9275 
27818 344 4 1.5228 1.19768 27.9966 
27764 341 4 0.689893 1.6598 28.2287 
27821 344 4 0.682727 1.65252 28.2922 
27820 344 4 1.52977 1.78275 28.8076 
27763 341 4 1.54632 1.76834 28.7335 
27819 344 4 2.36984 1.32791 28.5119 
27762 341 4 2.36883 1.28594 28.4322 
27768 341 4 3.22526 1.39448 28.9369 
27825 344 4 3.21688 1.45815 29.0273 
27828 344 4 0.560807 2.39847 29.2744 
27771 341 4 0.601813 2.4168 29.206 
27770 341 4 1.58024 2.35929 29.5395 
27827 344 4 1.53673 2.36783 29.6185 
27769 341 4 2.54048 1.9851 29.441 
27826 344 4 2.50892 2.02365 29.5281 
27918 349 4 2.28498 1.49417 33.7389 
27836 344 4 3.47092 0.822856 28.2503 
27930 349 4 3.26436 0.824705 32.4769 
27931 349 4 4.22213 0.793968 32.8688 
27929 349 4 2.2602 1.05434 32.5806 
27928 349 4 1.47872 1.42134 33.1519 
27919 349 4 3.1778 1.19585 33.4015 
27920 349 4 4.87687 0.970364 33.6511 
27779 341 4 3.45107 0.745698 28.1624 
27113 306 4 3.87309 10.4986 5.46909 
27112 306 4 3.46392 9.60272 5.15 
27109 306 4 2.04256 9.48766 2.70735 
27108 306 4 1.93149 10.3414 2.13238 
27110 306 4 2.40706 9.01907 3.5555 
27100 306 4 2.51545 10.2064 3.21711 
27099 306 4 2.54597 11.1383 2.85576 
27096 306 4 2.98834 10.925 3.72687 
27111 306 4 2.92731 9.06118 4.44957 
27101 306 4 2.95783 9.99312 4.08822 
27102 306 4 3.43072 10.7118 4.59798 
27726 339 4 3.96961 10.9836 27.4918 
27745 340 4 4.29646 10.6675 27.5546 
27727 339 4 3.02201 11.1497 27.7647 
27732 339 4 5.378 9.97548 27.4992 
27733 339 4 5.13911 10.8965 27.0911 
27753 340 4 5.11091 10.9873 27.0705 
27747 340 4 2.64592 10.8961 28.0273 
27731 339 4 5.10908 9.14351 28.0535 
27751 340 4 5.15419 9.25069 28.0616 
27742 340 4 3.48201 10.3476 28.0387 
27723 339 4 3.48281 10.3076 28.045 
27744 340 4 4.3181 9.79916 28.0502 
27725 339 4 4.4304 10.1416 27.7721 
27752 340 4 5.38789 10.0836 27.4929 
27746 340 4 3.46037 11.2159 27.5432 
27741 339 4 3.45277 8.5547 29.0074 
27749 340 4 3.52528 8.61104 29.0299 
27743 340 4 3.50364 9.47934 28.5343 
27730 339 4 4.40439 8.62347 28.6056 
27750 340 4 4.47242 8.71169 28.6242 