ITEM: TIMESTEP
7000000
ITEM: NUMBER OF ATOMS
475
ITEM: BOX BOUNDS pp pp pp
7.1354277009520928e-01 3.3076457229894366e+01
7.1354277009520928e-01 3.3076457229894366e+01
7.1354277009520928e-01 3.3076457229894366e+01
ITEM: ATOMS id mol type x y z 
27440 324 4 5.87685 1.24198 5.09785 
27447 324 4 4.95037 0.928598 5.30644 
27445 324 4 5.97457 1.99066 6.65675 
27446 324 4 5.25504 1.44482 6.15058 
27297 316 4 4.16916 5.85947 15.1079 
27296 316 4 4.60414 5.51464 15.9819 
27294 316 4 4.28505 5.81264 17.9337 
27295 316 4 4.64656 5.4975 17.0162 
27263 314 4 1.08938 7.6219 3.21513 
27187 310 4 1.06642 7.62768 3.16974 
27264 314 4 0.888048 6.66342 3.55078 
27186 310 4 0.873137 6.67067 3.51421 
27262 314 4 0.788979 8.60149 3.06662 
27188 310 4 0.762038 8.60629 3.02295 
27298 316 4 3.45815 6.4396 14.6285 
27299 316 4 2.66165 7.09957 14.6721 
27429 323 4 5.23749 7.53883 14.9322 
27373 320 4 5.22092 7.51582 14.9587 
27372 320 4 4.41502 8.16574 14.9562 
27430 323 4 4.42724 8.18312 14.9484 
27300 316 4 1.99307 7.66255 15.227 
27291 316 4 2.38531 7.35765 16.3625 
27289 316 4 3.65411 6.29853 15.8441 
27286 316 4 3.13906 6.7376 16.5804 
27290 316 4 2.90036 6.91858 15.6263 
27288 316 4 3.89281 6.11755 16.7983 
27374 320 4 5.92567 6.96341 15.4783 
27428 323 4 5.94685 6.97753 15.4358 
27421 323 4 5.40391 7.41304 16.1539 
27365 320 4 5.03216 7.69779 15.9237 
27366 320 4 5.59191 7.26815 16.6324 
27419 323 4 4.86097 7.84855 16.872 
27362 320 4 4.8434 7.87977 16.8888 
27301 316 4 1.63155 7.9777 16.1446 
27423 323 4 4.10116 8.45135 16.6283 
27364 320 4 4.28366 8.3094 16.1801 
27371 320 4 3.72391 8.73904 15.4715 
27431 323 4 3.7332 8.73777 15.48 
27370 320 4 3.33276 9.0821 16.3666 
27432 323 4 3.34135 9.05415 16.3845 
27422 323 4 4.6441 8.01584 15.9102 
27303 316 4 2.10896 7.61572 18.0528 
27292 316 4 2.62401 7.17666 17.3166 
27304 316 4 2.81997 7.0356 18.5322 
27287 316 4 3.37776 6.55661 17.5345 
27293 316 4 3.61647 6.37563 18.4886 
27425 323 4 5.07784 7.68127 17.8338 
27367 320 4 5.40315 7.45013 17.5974 
27420 323 4 5.62078 7.24576 17.1157 
27377 320 4 5.9629 7.02049 18.3061 
27437 323 4 5.98874 6.95934 18.264 
27302 316 4 1.67398 7.96056 17.1789 
27369 320 4 3.34639 9.10299 17.4016 
27433 323 4 3.35668 9.04749 17.4197 
27363 320 4 4.0949 8.49138 17.1452 
27380 320 4 3.76114 8.79612 18.2992 
27434 323 4 3.77508 8.71958 18.3081 
27368 320 4 4.65465 8.06174 17.8538 
27424 323 4 4.31803 8.28407 17.5901 
27436 323 4 5.2947 7.51398 18.7956 
27378 320 4 5.27179 7.59379 18.8214 
27379 320 4 4.46589 8.24372 18.8189 
27435 323 4 4.48445 8.15828 18.8117 
27240 313 4 5.51788 26.4848 0.838053 
27239 313 4 5.52575 25.9997 1.75265 
27126 307 4 5.56144 25.9746 1.82775 
27125 307 4 5.52834 26.4408 0.90397 
27238 313 4 5.91123 25.8927 2.70756 
27127 307 4 5.96633 25.8934 2.77715 
27335 318 4 1.32308 23.8643 27.1766 
27334 318 4 1.15106 22.9428 27.6161 
27336 318 4 1.06833 24.8601 27.0526 
27241 313 4 5.88971 27.218 32.5717 
27124 307 4 5.87591 27.1673 32.6163 
27449 324 4 5.77912 32.8562 3.53895 
27448 324 4 5.1422 32.9432 4.35052 
27451 324 4 7.63208 1.12007 3.12178 
27441 324 4 6.29122 1.02434 4.21411 
27442 324 4 7.2177 1.33772 4.00552 
27452 324 4 8.35161 1.66592 3.62795 
27439 324 4 6.38895 1.77301 5.77301 
27438 324 4 6.80333 1.55537 4.88927 
27443 324 4 7.7298 1.86875 4.68068 
27444 324 4 7.31543 2.0864 5.56442 
27453 324 4 8.65628 2.18214 4.47209 
27454 324 4 8.46446 2.53042 5.42802 
27456 324 4 6.91617 2.41987 6.68933 
27455 324 4 7.82753 2.61743 6.23958 
27427 323 4 6.36526 6.64962 16.3243 
27375 320 4 6.34042 6.65654 16.3759 
27426 323 4 6.38059 6.64296 17.3595 
27376 320 4 6.35405 6.67743 17.411 
27038 302 4 9.7718 11.0614 21.7484 
27089 305 4 9.75825 11.0917 21.7643 
27021 302 4 9.23924 11.4209 22.8082 
27081 305 4 9.24998 11.445 22.838 
27027 302 4 9.57165 10.5018 22.5961 
27090 305 4 9.58224 10.5285 22.615 
27028 302 4 9.19336 10.4348 23.5575 
27091 305 4 9.22817 10.4565 23.5852 
27029 302 4 8.7383 10.8782 24.375 
27092 305 4 8.79091 10.8949 24.415 
27036 302 4 9.48526 12.9666 21.2111 
27087 305 4 9.4478 12.9967 21.24 
27080 305 4 9.31338 12.1783 22.1609 
27026 302 4 9.3235 12.1517 22.1308 
27037 302 4 9.74017 11.9636 21.2414 
27088 305 4 9.70904 11.9951 21.261 
27086 305 4 9.04453 13.8281 21.7069 
27035 302 4 9.07535 13.8016 21.6655 
27078 305 4 8.58546 13.278 23.2839 
27025 302 4 8.99108 13.0708 22.3429 
27079 305 4 8.98112 13.0948 22.3839 
27020 302 4 8.90682 12.3399 23.0202 
27077 305 4 8.91772 12.3615 23.0609 
27024 302 4 8.57441 13.2589 23.2323 
27023 302 4 8.49015 12.528 23.9097 
27083 305 4 8.52206 12.5447 23.9609 
27022 302 4 8.82256 11.609 23.6976 
27082 305 4 8.85432 11.6282 23.7379 
27084 305 4 8.2532 14.1945 23.5069 
27033 302 4 8.242 14.1779 23.4444 
27085 305 4 8.60727 14.2665 22.5366 
27034 302 4 8.62028 14.245 22.483 
27031 302 4 8.07347 12.7162 24.7991 
27094 305 4 8.1264 12.7279 24.8609 
27030 302 4 8.32839 11.7132 24.8294 
27093 305 4 8.38764 11.7263 24.8819 
27032 302 4 8.04185 13.6184 24.2921 
27095 305 4 8.07719 13.6313 24.3576 
27219 312 4 11.2959 12.4079 26.6636 
27277 315 4 11.4278 12.369 26.6482 
27220 312 4 10.4889 12.982 26.9653 
27276 315 4 10.5944 12.8834 26.984 
27214 312 4 11.1284 15.0266 26.3243 
27274 315 4 10.0094 14.7959 26.9629 
27222 312 4 10.0249 14.9256 26.8793 
27221 312 4 10.0236 13.9035 27.0443 
27275 315 4 10.0753 13.7717 27.0992 
27213 312 4 10.8941 14.0911 26.5891 
27268 315 4 10.8883 14.5374 26.5618 
27269 315 4 11.1808 13.5811 26.5723 
27223 312 4 10.4923 15.7744 26.5146 
27224 312 4 11.3006 16.2224 26.0479 
27285 315 4 10.4145 15.6815 26.6117 
27273 315 4 11.4746 15.2351 26.1501 
27284 315 4 11.1821 16.1914 26.1396 
27117 307 4 6.41244 27.2896 1.08836 
27229 313 4 6.93498 27.411 1.9031 
27231 313 4 6.4231 26.6518 2.30533 
27118 307 4 6.25521 26.6932 1.87556 
27232 313 4 6.22643 26.9479 1.37057 
27115 307 4 6.94898 27.4119 1.92338 
27236 313 4 7.32833 26.8189 3.7726 
27120 307 4 7.48552 27.5342 2.75839 
27128 307 4 6.63452 26.2191 3.49778 
27129 307 4 7.38697 26.8644 3.79655 
27119 307 4 6.79175 26.8155 2.71058 
27230 313 4 7.13166 27.1149 2.83785 
27237 313 4 6.57102 26.1926 3.44691 
27130 307 4 8.02206 27.6564 3.59341 
27247 313 4 7.98025 27.6039 3.59736 
27121 307 4 7.64275 28.1305 1.97119 
27234 313 4 7.44685 28.1701 1.50086 
27116 307 4 7.10621 28.0083 1.13617 
27233 313 4 6.7383 27.707 0.968342 
27235 313 4 7.64353 27.874 2.43562 
27133 307 4 7.93163 28.9304 1.0696 
27244 313 4 7.95873 28.9292 1.09863 
27132 307 4 8.33652 28.8492 2.019 
27245 313 4 8.34421 28.8223 2.05354 
27246 313 4 8.35208 28.3371 2.96814 
27131 307 4 8.36962 28.3829 2.94278 
27450 324 4 6.69048 33.0538 3.0892 
27123 307 4 6.511 27.9593 32.4131 
27243 313 4 7.29894 28.6293 32.7222 
27122 307 4 7.26345 28.6046 32.7119 
27242 313 4 6.54163 28.003 32.3965 
27066 304 4 14.7343 11.3698 31.622 
27279 315 4 13.1197 12.8762 25.7097 
27217 312 4 13.0368 12.7832 25.7533 
27216 312 4 12.635 14.4665 25.6788 
27272 315 4 12.3534 14.9766 25.749 
27271 315 4 12.6459 14.0204 25.7596 
27280 315 4 13.5248 13.7619 25.3584 
27228 312 4 13.5042 13.632 25.3886 
27281 315 4 13.4589 14.786 25.2221 
27227 312 4 13.5055 14.6541 25.2236 
27283 315 4 12.1063 16.1887 25.6731 
27225 312 4 12.2332 16.1497 25.6043 
27226 312 4 13.0402 15.5756 25.3026 
27282 315 4 12.9397 15.6743 25.3373 
27215 312 4 11.9989 15.2142 25.8691 
27278 315 4 12.3521 12.3664 26.1818 
27218 312 4 12.2286 12.3352 26.22 
27212 312 4 11.5302 13.3434 26.3988 
27270 315 4 12.0596 13.3226 26.1712 
27211 312 4 12.4007 13.531 25.9436 
27267 315 4 11.7671 14.2789 26.1607 
27210 312 4 11.7646 14.2788 26.134 
27076 304 4 12.9414 12.2322 31.8279 
27075 304 4 12.6086 13.1703 32.1124 
27065 304 4 13.7194 11.5731 31.6484 
27059 304 4 14.1613 12.4236 31.9341 
27064 304 4 13.6059 13.2222 32.1661 
27058 304 4 14.6031 13.274 32.2198 
27060 304 4 15.1585 12.4754 31.9878 
27067 304 4 15.7139 11.6768 31.7558 
27068 304 4 16.396 12.4117 32.014 
27074 304 4 12.8102 14.1363 32.4257 
27073 304 4 13.4923 14.8712 32.6838 
27062 304 4 15.0449 14.1244 32.5055 
27063 304 4 14.0477 14.0726 32.4518 
27071 304 4 15.4868 14.9749 32.7912 
27070 304 4 16.2648 14.3158 32.6118 
27061 304 4 15.6004 13.3258 32.2735 
27069 304 4 16.5976 13.3776 32.3273 
27072 304 4 14.472 15.1781 32.8176 
27395 321 4 13.287 28.7989 5.25554 
27160 309 4 13.2894 28.8374 5.26746 
27171 309 4 12.3512 29.2192 5.48146 
27394 321 4 12.344 29.1805 5.44819 
27161 309 4 14.3207 28.9054 5.32954 
27396 321 4 14.3165 28.8676 5.34048 
27397 321 4 15.1568 29.368 5.68026 
27162 309 4 15.1685 29.405 5.65107 
27159 309 4 12.6968 30.2323 6.10602 
27393 321 4 11.7403 29.9099 5.86682 
27385 321 4 12.977 29.8297 5.86987 
27170 309 4 11.7573 29.9485 5.91421 
27154 309 4 13.4629 29.6768 5.78264 
27386 321 4 13.9633 29.6733 5.81601 
27155 309 4 14.4024 29.9606 5.97445 
27158 309 4 12.8703 31.0717 6.6212 
27392 321 4 11.6375 30.7919 6.39926 
27384 321 4 12.6238 30.6355 6.3454 
27169 309 4 11.6669 30.8299 6.44974 
27382 321 4 14.2431 31.1283 6.71322 
27387 321 4 14.5963 30.3226 6.23769 
27156 309 4 14.5759 30.8 6.48963 
27153 309 4 13.6364 30.5162 6.29782 
27381 321 4 13.61 30.479 6.29154 
27163 309 4 15.6058 30.2024 6.1459 
27399 321 4 15.4798 31.0481 6.71626 
27164 309 4 15.5155 31.0838 6.68143 
27398 321 4 15.5826 30.1661 6.18383 
27383 321 4 13.2568 31.2847 6.76708 
27168 309 4 12.1042 31.6273 6.94457 
27391 321 4 12.0633 31.59 6.90283 
27390 321 4 12.9036 32.0904 7.24261 
27167 309 4 12.9521 32.1269 7.2661 
27157 309 4 13.8099 31.3556 6.813 
27388 321 4 14.8761 31.7775 7.1349 
27165 309 4 14.9216 31.8132 7.11418 
27166 309 4 13.9833 32.195 7.32818 
27389 321 4 13.9331 32.1591 7.32755 
27145 308 4 12.2399 31.3076 27.5991 
27146 308 4 12.8845 31.9486 27.1036 
27147 308 4 13.7368 32.5363 27.0993 
27148 308 4 14.5684 32.9134 27.5872 
27144 308 4 11.9758 30.785 28.453 
27143 308 4 12.1629 30.521 29.4365 
27136 308 4 12.9113 31.1354 29.1865 
27137 308 4 12.9498 31.5287 28.2679 
27138 308 4 13.6982 32.1431 28.0179 
27134 308 4 13.6597 31.7498 28.9366 
27139 308 4 14.4082 32.3642 28.6867 
27149 308 4 15.1566 32.9786 28.4367 
27150 308 4 15.3437 32.7146 29.4202 
27142 308 4 12.7511 30.5863 30.286 
27141 308 4 13.5827 30.9633 30.7739 
27140 308 4 14.3696 31.971 29.6053 
27135 308 4 13.6212 31.3566 29.8553 
27151 308 4 15.0796 32.1921 30.2741 
27152 308 4 14.435 31.5511 30.7696 
27354 319 4 20.8827 5.15406 22.1717 
27415 322 4 20.8915 5.15904 22.1243 
27355 319 4 20.508 6.02347 21.7526 
27416 322 4 20.5415 6.05337 21.7376 
27405 322 4 20.9095 5.79822 22.8932 
27346 319 4 20.8843 5.82184 22.9161 
27404 322 4 21.2257 5.49161 23.7911 
27353 319 4 21.2582 4.64251 22.9897 
27414 322 4 21.2511 4.60724 22.9232 
27345 319 4 21.21 5.55775 23.824 
27352 319 4 21.534 4.62589 23.9875 
27413 322 4 21.5239 4.54583 23.92 
27411 322 4 21.5599 5.82419 25.4578 
27350 319 4 21.5374 5.96145 25.4763 
27351 319 4 21.6362 5.10865 24.8977 
27412 322 4 21.637 4.99127 24.8477 
27356 319 4 20.2346 7.01779 21.8448 
27417 322 4 20.295 7.05061 21.8665 
27461 325 4 22.2556 9.47845 21.6719 
27044 303 4 22.2651 9.48639 21.6646 
27469 325 4 21.7685 8.34772 21.814 
27053 303 4 21.7637 8.36095 21.7989 
27054 303 4 21.4496 9.14354 21.1982 
27470 325 4 21.4423 9.12339 21.2108 
27472 325 4 22.0681 10.9867 20.8411 
27056 303 4 22.0994 11.001 20.8407 
27471 325 4 21.552 10.0893 20.8547 
27055 303 4 21.5724 10.1099 20.8475 
27357 319 4 20.1358 7.87058 22.4234 
27418 322 4 20.2179 7.88353 22.4766 
27343 319 4 20.886 6.48962 23.6605 
27400 322 4 20.9275 6.4374 23.6621 
27347 319 4 20.5603 6.7537 22.7527 
27406 322 4 20.6112 6.744 22.7643 
27401 322 4 20.6292 7.38318 23.5332 
27348 319 4 20.562 7.42148 23.4971 
27358 319 4 20.238 8.35335 23.3336 
27407 322 4 20.331 8.32897 23.4043 
27349 319 4 20.8877 7.1574 24.405 
27402 322 4 20.9454 7.07658 24.431 
27360 319 4 20.8894 7.82518 25.1494 
27409 322 4 20.9634 7.71576 25.1999 
27361 319 4 21.264 6.95576 25.5685 
27410 322 4 21.3134 6.82143 25.5867 
27344 319 4 21.2117 6.22553 24.5684 
27403 322 4 21.2437 6.1308 24.56 
27408 322 4 20.6038 8.26756 24.4011 
27359 319 4 20.5138 8.33673 24.3313 
27106 306 4 21.8013 16.9701 5.87176 
27108 306 4 21.9189 18.2435 7.40961 
27107 306 4 21.6091 17.6877 6.59291 
27045 303 4 22.59 10.4151 21.4858 
27457 325 4 23.0688 9.83351 22.133 
27039 303 4 23.0806 9.82923 22.1309 
27040 303 4 23.4056 10.758 21.9521 
27463 325 4 23.3817 10.7652 21.9482 
27462 325 4 22.5685 10.4101 21.4871 
27460 325 4 22.7559 8.90184 22.3178 
27051 303 4 23.2719 8.08031 23.0822 
27467 325 4 23.2853 8.0919 23.0923 
27459 325 4 23.5692 9.2569 22.779 
27042 303 4 23.5712 9.24335 22.776 
27466 325 4 24.0695 8.68029 23.4249 
27050 303 4 24.0618 8.65747 23.4211 
27052 303 4 22.4307 7.97178 22.4884 
27468 325 4 22.443 7.97017 22.5027 
27043 303 4 22.7557 8.90051 22.3097 
27049 303 4 24.5888 9.5486 23.4142 
27465 325 4 24.5856 9.57769 23.4114 
27458 325 4 23.8821 10.1886 22.5941 
27041 303 4 23.8961 10.1721 22.5972 
27048 303 4 24.7117 10.5149 23.0635 
27464 325 4 24.6953 10.5436 23.0553 
27475 325 4 24.3692 11.3193 22.452 
27047 303 4 24.3975 11.2975 22.4629 
27104 306 4 23.3647 15.8106 5.41172 
27105 306 4 22.4439 16.283 5.43942 
27103 306 4 24.3171 15.6794 5.79608 
27097 306 4 23.8997 16.3817 6.37283 
27098 306 4 22.9631 16.6835 6.19449 
27113 306 4 25.3555 16.4803 7.30623 
27102 306 4 24.4189 16.7822 7.1279 
27114 306 4 25.0457 15.9245 6.48952 
27057 303 4 22.8893 11.5782 21.1796 
27046 303 4 23.7305 11.6867 21.7733 
27473 325 4 22.8524 11.5751 21.1737 
27474 325 4 23.6947 11.6968 21.7633 
27100 306 4 23.0649 17.7863 7.52631 
27101 306 4 24.0015 17.4845 7.70464 
27099 306 4 22.5457 17.3858 6.77124 
27096 306 4 23.4823 17.084 6.94957 
27109 306 4 22.6475 18.4886 8.10305 
27110 306 4 23.5998 18.3574 8.48742 
27112 306 4 25.1633 17.1979 8.02737 
27111 306 4 24.5207 17.885 8.45972 
27209 311 4 24.9631 24.8819 3.22825 
27015 301 4 24.9688 24.882 3.20846 
27208 311 4 24.5124 25.7121 2.80446 
27016 301 4 24.5262 25.7155 2.7828 
27198 311 4 25.3376 24.3914 4.05951 
27014 301 4 25.3352 24.3883 4.04147 
27018 301 4 23.875 27.4773 3.47002 
27206 311 4 23.8537 27.4703 3.49395 
27207 311 4 24.1064 26.6595 2.90172 
27017 301 4 24.1258 26.6654 2.87853 
27006 301 4 24.6051 25.9328 3.75574 
27197 311 4 24.5957 25.9308 3.77673 
27007 301 4 24.2795 26.8137 4.09935 
27196 311 4 24.2663 26.8099 4.12148 
27012 301 4 25.4931 24.8229 5.98735 
27199 311 4 25.5356 24.372 5.07553 
27013 301 4 25.5271 24.3666 5.05861 
27004 301 4 25.0886 25.4865 5.35802 
27005 301 4 25.0096 25.2692 4.38508 
27193 311 4 25.0915 25.4892 5.37653 
27192 311 4 25.0082 25.2705 4.40426 
27200 311 4 25.5041 24.8289 6.00406 
27003 301 4 24.763 26.3674 5.70163 
27194 311 4 24.7622 26.3683 5.72128 
27001 301 4 24.6841 26.1501 4.72869 
27002 301 4 24.3585 27.031 5.0723 
27191 311 4 24.6789 26.1496 4.749 
27195 311 4 24.3496 27.0286 5.09375 
27011 301 4 25.2424 25.6348 6.57884 
27201 311 4 25.2515 25.6396 6.59629 
27010 301 4 24.842 26.5847 6.67458 
27202 311 4 24.8454 26.587 6.69355 
27203 311 4 24.3948 27.4172 6.26976 
27009 301 4 24.3993 27.4182 6.24891 
27205 311 4 23.8222 27.9271 4.42248 
27019 301 4 23.841 27.9336 4.39876 
27204 311 4 24.0203 27.9077 5.4385 
27008 301 4 24.0329 27.9119 5.41591 
27265 314 4 32.6018 5.98286 3.98362 
27185 310 4 32.5969 5.99169 3.96404 
27183 310 4 30.7396 6.07232 4.70176 
27255 314 4 30.7293 6.06162 4.68202 
27184 310 4 31.6831 5.77268 4.39872 
27266 314 4 31.6788 5.76259 4.39769 
27174 310 4 30.6434 7.74862 4.27632 
27250 314 4 30.6435 7.74003 4.26272 
27249 314 4 31.1545 6.88114 4.29777 
27175 310 4 31.1558 6.89031 4.30461 
27172 310 4 31.572 7.70831 3.90746 
27248 314 4 31.5798 7.70065 3.91352 
27177 310 4 32.5007 7.66799 3.5386 
27253 314 4 32.516 7.66128 3.56433 
27254 314 4 32.0908 6.84176 3.94857 
27176 310 4 32.0845 6.85 3.93575 
27179 310 4 30.5472 9.42492 3.85088 
27259 314 4 30.5577 9.41845 3.84343 
27251 314 4 31.0687 8.55955 3.87848 
27173 310 4 31.0596 8.56661 3.87917 
27258 314 4 29.9086 8.73789 4.27627 
27180 310 4 29.908 8.74595 4.30071 
27252 314 4 32.005 8.52017 3.52928 
27178 310 4 31.9882 8.5263 3.51031 
27189 310 4 32.4045 9.34429 3.11316 
27260 314 4 31.4807 9.63872 3.42936 
27261 314 4 32.4302 9.33969 3.14503 
27190 310 4 31.4609 9.64393 3.4162 
27257 314 4 29.7072 7.77941 4.61192 
27181 310 4 29.7147 7.78893 4.64518 
27182 310 4 30.0191 6.81032 4.79197 
27256 314 4 30.0076 6.79982 4.76043 
27332 318 4 32.176 22.2244 28.9176 
27312 317 4 31.1517 26.9588 12.9948 
27323 317 4 31.338 25.9405 12.9812 
27322 317 4 31.6562 25.0807 13.4623 
27321 317 4 32.021 24.6099 14.3091 
27310 317 4 32.0825 25.5932 15.061 
27311 317 4 31.7432 25.8065 14.1448 
27307 317 4 31.578 27.4713 14.5935 
27305 317 4 31.8302 26.5323 14.8272 
27306 317 4 31.491 26.7455 13.911 
27320 317 4 32.3347 24.6542 15.2948 
27319 317 4 32.5132 25.2017 16.1552 
27308 317 4 31.9173 27.258 15.5097 
27317 317 4 32.3225 27.1241 16.6733 
27309 317 4 32.1695 26.319 15.7435 
27318 317 4 32.5088 26.1057 16.6597 
27337 318 4 32.818 25.6634 27.2774 
27327 318 4 32.8896 24.003 27.7654 
27331 318 4 31.3686 22.62 29.4309 
27325 318 4 31.7309 23.3808 28.8926 
27326 318 4 32.5273 23.2421 28.3038 
27333 318 4 32.9613 22.3426 28.2534 
27340 318 4 30.6726 25.3405 29.0922 
27329 318 4 31.6593 25.0412 28.4046 
27324 318 4 32.0933 24.1417 28.3542 
27330 318 4 31.2969 24.2804 28.9429 
27328 318 4 32.4556 24.9026 27.8158 
27339 318 4 31.2253 25.9408 28.455 
27338 318 4 32.0106 26.059 27.7907 
27342 318 4 30.7553 23.4233 29.6557 
27341 318 4 30.5006 24.4191 29.5317 
27313 317 4 31.1472 27.8628 13.4993 
27314 317 4 31.3258 28.4104 14.3597 
27316 317 4 32.0043 27.9838 16.1922 
27315 317 4 31.6395 28.4546 15.3453 
ITEM: TIMESTEP
7050000
ITEM: NUMBER OF ATOMS
475
ITEM: BOX BOUNDS pp pp pp
7.1354277009520928e-01 3.3076457229894366e+01
7.1354277009520928e-01 3.3076457229894366e+01
7.1354277009520928e-01 3.3076457229894366e+01
ITEM: ATOMS id mol type x y z 
27450 324 4 4.10049 2.04605 5.59775 
27442 324 4 5.26001 1.96987 6.02871 
27452 324 4 5.98617 1.61492 5.08917 
27451 324 4 4.96402 1.77947 5.09265 
27449 324 4 3.62697 2.34324 6.46915 
27439 324 4 5.852 2.35067 7.90084 
27438 324 4 5.55601 2.16027 6.96478 
27441 324 4 4.59149 2.25175 6.71696 
27440 324 4 4.88748 2.44215 7.65303 
27448 324 4 3.67033 2.5914 7.47335 
27447 324 4 4.21895 2.72404 8.34128 
27446 324 4 5.12584 2.70562 8.84038 
27298 316 4 2.44177 3.91931 16.1627 
27297 316 4 3.11247 3.38046 16.7386 
27300 316 4 1.51695 5.68307 16.3475 
27299 316 4 1.85777 4.76212 16.0195 
27289 316 4 2.9389 4.2171 17.2582 
27295 316 4 4.02002 3.67209 18.4969 
27296 316 4 3.69015 3.28998 17.593 
27291 316 4 2.13798 5.74457 17.4183 
27290 316 4 2.31155 4.90793 16.8987 
27286 316 4 2.76533 5.05374 17.7778 
27292 316 4 2.59176 5.89038 18.2974 
27287 316 4 3.21911 5.19956 18.657 
27288 316 4 3.39268 4.36292 18.1374 
27294 316 4 4.0137 4.42442 19.2082 
27293 316 4 3.67288 5.34537 19.5361 
27187 310 4 0.979429 7.45278 4.00052 
27263 314 4 0.957762 7.41284 3.99914 
27188 310 4 0.970746 8.39868 3.57973 
27262 314 4 0.964047 8.36031 3.58185 
27302 316 4 1.84051 6.81751 17.9627 
27301 316 4 1.51063 6.4354 17.0588 
27433 323 4 5.97743 8.18503 18.0735 
27369 320 4 5.98146 8.132 18.124 
27303 316 4 2.41819 6.72702 18.8171 
27304 316 4 3.08888 6.18818 19.393 
27380 320 4 5.76341 7.3366 18.7498 
27434 323 4 5.7691 7.39659 18.7114 
27435 323 4 5.89328 6.40484 18.9813 
27379 320 4 5.87408 6.33903 19.0038 
27232 313 4 5.01898 26.8134 2.2851 
27125 307 4 4.32003 26.0956 2.03802 
27240 313 4 4.30994 26.1357 2.09029 
27117 307 4 5.12636 27.0082 1.80804 
27233 313 4 5.38145 27.3839 1.54801 
27241 313 4 4.50911 26.5846 1.1789 
27124 307 4 4.53435 26.5603 1.13802 
27229 313 4 5.72802 27.4912 2.47991 
27115 307 4 5.71837 27.4562 2.47807 
27230 313 4 6.07459 27.5986 3.41182 
27126 307 4 4.4804 25.9954 3.05593 
27239 313 4 4.49074 26.0499 3.10609 
27118 307 4 5.09939 26.7258 2.767 
27231 313 4 5.36555 26.9208 3.21701 
27238 313 4 5.00308 26.3504 3.9541 
27127 307 4 4.97249 26.2867 3.919 
27119 307 4 5.6914 27.1738 3.43702 
27128 307 4 5.66443 26.8914 4.39598 
27237 313 4 5.70966 26.9565 4.40711 
27242 313 4 5.03488 27.2765 32.979 
27123 307 4 5.06592 27.2651 32.96 
27116 307 4 5.74535 27.7386 1.51912 
27234 313 4 6.09049 28.0617 1.74282 
27243 313 4 5.74638 28.0259 32.9156 
27122 307 4 5.77232 28.021 32.9231 
27453 324 4 6.89306 1.5965 5.58827 
27444 324 4 6.52053 2.06879 7.21259 
27454 324 4 7.44169 1.72914 6.4562 
27455 324 4 7.48505 1.9773 7.4604 
27443 324 4 6.22454 1.87839 6.27652 
27456 324 4 7.01153 2.27449 8.3318 
27445 324 4 6.148 2.54107 8.8369 
27427 323 4 8.04262 5.09061 16.6035 
27428 323 4 8.25095 5.87905 15.9657 
27375 320 4 7.99894 5.03225 16.6 
27374 320 4 8.21699 5.82766 15.9741 
27377 320 4 6.88282 4.78915 18.2418 
27376 320 4 7.5106 4.65213 17.43 
27426 323 4 7.55761 4.71675 17.4383 
27420 323 4 7.28381 5.67729 17.3884 
27367 320 4 6.93651 5.68564 17.8019 
27437 323 4 6.92587 4.85763 18.2464 
27425 323 4 6.66335 6.05667 18.0748 
27366 320 4 7.49457 5.80719 16.981 
27378 320 4 6.28382 5.4066 18.8178 
27436 323 4 6.31668 5.47552 18.8111 
27421 323 4 7.63048 6.25844 16.6521 
27422 323 4 7.35669 7.21897 16.6022 
27365 320 4 7.54826 6.70367 16.5411 
27372 320 4 7.69658 7.75765 15.9061 
27430 323 4 7.70336 7.80012 15.8659 
27373 320 4 8.10631 6.82522 15.7202 
27429 323 4 8.12677 6.8708 15.6957 
27371 320 4 7.09757 8.3751 16.4822 
27431 323 4 7.09418 8.41801 16.4307 
27363 320 4 6.48583 7.35706 17.743 
27362 320 4 6.9902 6.58213 17.362 
27419 323 4 7.01002 6.63782 17.3385 
27423 323 4 6.73623 7.59836 17.2886 
27424 323 4 6.38956 7.01721 18.0249 
27368 320 4 6.43214 6.46058 18.1829 
27364 320 4 7.04388 7.47861 16.9221 
27370 320 4 6.46979 8.51212 17.294 
27432 323 4 6.46244 8.55889 17.2387 
27090 305 4 11.4562 9.11108 21.8854 
27027 302 4 11.416 9.11697 21.9101 
27020 302 4 10.6767 10.952 22.2041 
27080 305 4 11.3578 10.7813 21.437 
27021 302 4 11.0463 10.0345 22.0571 
27081 305 4 11.0805 10.0263 22.0313 
27026 302 4 11.3298 10.7886 21.4646 
27077 305 4 10.7048 10.9415 22.1773 
27028 302 4 10.7762 9.02176 22.7185 
27091 305 4 10.8185 9.01298 22.695 
27029 302 4 10.1098 9.44377 23.389 
27092 305 4 10.1503 9.43164 23.366 
27094 305 4 9.39897 11.2621 23.6579 
27031 302 4 9.37046 11.2788 23.683 
27093 305 4 9.63074 10.2549 23.7184 
27030 302 4 9.59522 10.2699 23.7421 
27023 302 4 10.0236 11.1154 22.9436 
27082 305 4 10.4276 10.1866 22.7716 
27022 302 4 10.3932 10.1979 22.7966 
27083 305 4 10.0519 11.1018 22.9176 
27035 302 4 11.2436 12.4602 21.0191 
27025 302 4 10.9601 11.7061 21.6116 
27086 305 4 11.2594 12.4514 20.9886 
27079 305 4 10.9821 11.6965 21.5829 
27085 305 4 10.5912 12.8701 21.6595 
27034 302 4 10.5772 12.8822 21.6897 
27095 305 4 9.51711 12.1834 23.2007 
27032 302 4 9.49571 12.2001 23.2277 
27084 305 4 9.95349 12.772 22.4692 
27033 302 4 9.93739 12.787 22.4981 
27078 305 4 10.3292 11.8568 22.3233 
27024 302 4 10.307 11.8695 22.3511 
27221 312 4 11.2573 12.4632 27.3073 
27275 315 4 11.2209 12.4688 27.3071 
27222 312 4 11.1968 13.4963 27.3382 
27274 315 4 11.1757 13.503 27.3274 
27129 307 4 6.37083 27.6474 4.35905 
27245 313 4 6.9653 28.9325 1.85374 
27132 307 4 6.95635 28.917 1.90021 
27133 307 4 6.46426 28.6257 1.03714 
27244 313 4 6.45296 28.6321 1.00573 
27121 307 4 6.33736 28.1866 2.18914 
27235 313 4 6.43706 28.169 2.67473 
27131 307 4 7.11672 28.8168 2.91812 
27246 313 4 7.1461 28.8468 2.86954 
27247 313 4 6.94693 28.3978 3.78093 
27130 307 4 6.9024 28.3521 3.81812 
27120 307 4 6.31039 27.9042 3.14809 
27236 313 4 6.42116 27.7059 4.34372 
27145 308 4 10.3746 29.2945 26.7839 
27146 308 4 10.9658 29.717 26.0465 
27137 308 4 11.1495 29.6963 27.272 
27143 308 4 10.4852 29.1509 28.7758 
27144 308 4 10.1987 29.0873 27.7829 
27136 308 4 11.2048 29.6245 28.2679 
27142 308 4 11.1573 29.4683 29.4965 
27065 304 4 14.6697 11.0542 1.5426 
27066 304 4 15.4034 10.9679 0.817274 
27089 305 4 11.8926 9.69965 21.1539 
27038 302 4 11.8577 9.70386 21.1805 
27037 302 4 11.9829 10.6252 20.7251 
27088 305 4 12.0107 10.621 20.6967 
27219 312 4 12.6794 11.1436 26.8208 
27277 315 4 12.6264 11.1235 26.8434 
27278 315 4 13.6101 11.1728 26.5241 
27218 312 4 13.6599 11.2107 26.4955 
27067 304 4 16.2012 11.373 32.6592 
27064 304 4 14.8766 12.6421 2.20298 
27076 304 4 14.1966 11.6086 2.2779 
27058 304 4 15.6423 12.8014 1.57982 
27061 304 4 16.4081 12.9608 0.956653 
27060 304 4 15.9217 12.0872 0.938045 
27059 304 4 15.156 11.9278 1.56121 
27062 304 4 16.1286 13.6751 1.59843 
27063 304 4 15.3629 13.5157 2.22159 
27072 304 4 15.8812 14.635 2.34236 
27071 304 4 16.615 14.5487 1.61704 
27075 304 4 14.1109 12.4827 2.82615 
27073 304 4 15.0835 14.2299 2.86337 
27074 304 4 14.4355 13.4421 3.04045 
27036 302 4 11.7581 11.6341 20.6661 
27087 305 4 11.7789 11.6282 20.6361 
27276 315 4 11.7519 11.5979 27.13 
27269 315 4 12.3929 12.3379 26.9258 
27213 312 4 12.1571 12.7841 27.0115 
27212 312 4 12.8681 12.1243 26.7683 
27267 315 4 13.0338 13.0779 26.7215 
27210 312 4 13.0569 13.105 26.7157 
27268 315 4 12.1048 13.2904 27.0244 
27220 312 4 11.7999 11.6021 27.118 
27270 315 4 13.3219 12.1253 26.6228 
27279 315 4 14.4393 11.7325 26.2578 
27211 312 4 13.7679 12.4451 26.4724 
27280 315 4 14.8919 12.6527 26.1157 
27228 312 4 14.9169 12.7136 26.0932 
27271 315 4 13.9629 12.8653 26.4186 
27217 312 4 14.4789 11.7853 26.2292 
27223 312 4 11.6348 14.4246 27.2022 
27285 315 4 11.6283 14.4232 27.1853 
27214 312 4 12.3458 13.7648 26.9589 
27273 315 4 12.7457 14.0304 26.8202 
27215 312 4 13.2456 14.0856 26.6631 
27224 312 4 12.4538 14.9992 26.9359 
27284 315 4 12.4576 14.9829 26.9189 
27216 312 4 13.9567 13.4258 26.4199 
27283 315 4 13.4412 15.0322 26.5997 
27225 312 4 13.4344 15.0663 26.6105 
27272 315 4 13.6748 13.8178 26.5173 
27227 312 4 14.8564 13.7467 26.1241 
27281 315 4 14.8467 13.6869 26.1359 
27282 315 4 14.3157 14.5578 26.3131 
27226 312 4 14.3138 14.6078 26.3134 
27068 304 4 16.8492 12.1608 32.4821 
27160 309 4 14.5569 28.5034 3.79432 
27395 321 4 14.5825 28.5081 3.79507 
27394 321 4 13.6525 28.6202 4.23616 
27171 309 4 13.6295 28.6171 4.24024 
27396 321 4 15.5753 28.7895 3.71223 
27161 309 4 15.5498 28.7832 3.70636 
27162 309 4 16.3422 29.3814 3.99993 
27397 321 4 16.3651 29.3891 4.00985 
27170 309 4 13.0161 29.0937 4.92464 
27393 321 4 13.0348 29.0959 4.91733 
27154 309 4 14.6791 29.2375 4.46228 
27385 321 4 14.235 29.2986 4.68414 
27386 321 4 15.1964 29.3832 4.42217 
27169 309 4 12.881 29.8056 5.66412 
27392 321 4 12.8946 29.8076 5.65604 
27159 309 4 13.9087 29.5327 5.02744 
27157 309 4 14.9235 30.7059 5.7982 
27158 309 4 14.0309 30.2669 5.6954 
27384 321 4 13.856 29.8922 5.39408 
27153 309 4 14.8013 29.9717 5.13024 
27381 321 4 14.8174 29.9769 5.13211 
27383 321 4 14.4385 30.5706 5.84205 
27398 321 4 16.7402 30.1462 4.60818 
27163 309 4 16.7217 30.1378 4.59636 
27399 321 4 16.6001 30.8579 5.34689 
27164 309 4 16.5866 30.8497 5.33584 
27382 321 4 15.3999 30.6552 5.58008 
27156 309 4 15.694 30.4107 5.23304 
27155 309 4 15.5718 29.6765 4.56508 
27387 321 4 15.7788 30.0616 4.87014 
27388 321 4 15.9823 31.3336 6.02806 
27165 309 4 15.9732 31.3263 6.02024 
27391 321 4 13.2697 30.5647 6.25437 
27168 309 4 13.2605 30.562 6.26055 
27167 309 4 14.0528 31.1602 6.55412 
27390 321 4 14.0595 31.1643 6.55199 
27166 309 4 15.0457 31.44 6.46616 
27389 321 4 15.0524 31.4457 6.46915 
27147 308 4 11.8138 30.2417 25.7681 
27148 308 4 12.6915 30.7278 26.0235 
27138 308 4 11.8691 30.1699 26.7641 
27139 308 4 12.644 30.5716 27.2521 
27149 308 4 13.3636 31.0452 26.7442 
27140 308 4 12.6993 30.4999 28.248 
27135 308 4 11.9797 30.0263 28.7559 
27152 308 4 12.883 30.4791 29.4735 
27134 308 4 11.9244 30.0981 27.76 
27151 308 4 13.4742 30.9016 28.7361 
27150 308 4 13.6501 31.1089 27.7371 
27141 308 4 12.035 29.9545 29.7519 
27355 319 4 20.7311 3.82988 22.8723 
27416 322 4 20.7211 3.86034 22.8783 
27346 319 4 21.0201 3.72908 24.0733 
27354 319 4 21.0872 3.00501 23.3868 
27405 322 4 21.0148 3.74037 24.0764 
27415 322 4 21.0691 3.0244 23.3803 
27356 319 4 20.4345 4.82176 22.8636 
27417 322 4 20.4373 4.85599 22.8839 
27418 322 4 20.2937 5.74455 23.3955 
27357 319 4 20.2768 5.71487 23.363 
27347 319 4 20.6938 4.63745 23.8117 
27406 322 4 20.6989 4.65617 23.8281 
27353 319 4 21.4074 2.56816 24.2691 
27414 322 4 21.388 2.57214 24.2553 
27413 322 4 21.5924 2.62475 25.2689 
27352 319 4 21.6058 2.6364 25.2829 
27404 322 4 21.2765 3.54055 25.0206 
27345 319 4 21.2795 3.54477 25.0214 
27403 322 4 21.2223 4.25652 25.7167 
27344 319 4 21.2124 4.26885 25.7079 
27348 319 4 20.6267 5.36153 24.4982 
27401 322 4 20.6447 5.37214 24.5242 
27402 322 4 20.9064 5.17232 25.4685 
27349 319 4 20.886 5.17722 25.4463 
27343 319 4 20.9531 4.45315 24.7598 
27400 322 4 20.9606 4.45634 24.7724 
27412 322 4 21.6276 3.16814 26.1494 
27351 319 4 21.6294 3.19143 26.1566 
27350 319 4 21.4717 4.08454 26.656 
27411 322 4 21.484 4.0567 26.661 
27409 322 4 20.8522 5.88829 26.1646 
27410 322 4 21.2002 5.05235 26.6666 
27360 319 4 20.819 5.90129 26.1328 
27361 319 4 21.1751 5.07642 26.6473 
27469 325 4 22.0819 8.35814 22.9547 
27053 303 4 22.0854 8.39421 22.9122 
27470 325 4 21.9482 9.35409 22.7055 
27054 303 4 21.9569 9.39503 22.6804 
27407 322 4 20.3288 6.28794 24.276 
27358 319 4 20.3004 6.2699 24.2367 
27359 319 4 20.4988 6.33814 25.2505 
27408 322 4 20.5333 6.34055 25.2896 
27070 304 4 17.0881 13.9943 0.881736 
27106 306 4 22.0517 16.6297 6.16423 
27069 304 4 17.1738 13.1202 32.6964 
27108 306 4 22.0212 18.6278 6.24642 
27107 306 4 21.7717 17.623 6.2466 
27467 325 4 23.5136 7.31152 23.8795 
27051 303 4 23.5093 7.32492 23.8229 
27468 325 4 22.6549 7.61051 23.3844 
27052 303 4 22.6536 7.6365 23.3304 
27043 303 4 23.1901 8.46899 23.4691 
27460 325 4 23.1881 8.4477 23.5064 
27457 325 4 23.7213 9.28489 23.6284 
27039 303 4 23.7265 9.30149 23.6077 
27459 325 4 24.0746 8.4131 23.9679 
27044 303 4 22.8417 9.34826 23.144 
27461 325 4 22.8348 9.31949 23.167 
27042 303 4 24.0749 8.42222 23.9327 
27041 303 4 24.6114 9.25472 24.0714 
27472 325 4 23.0146 11.0285 22.9496 
27045 303 4 23.3782 10.1808 23.2827 