ITEM: TIMESTEP
0
ITEM: NUMBER OF ATOMS
1425
ITEM: BOX BOUNDS pp pp pp
0.0000000000000000e+00 3.3789999999999999e+01
0.0000000000000000e+00 3.3789999999999999e+01
0.0000000000000000e+00 3.3789999999999999e+01
ITEM: ATOMS id mol type x y z 
65 0 5 2.7 4.9 0.5 
963 0 5 2.7 2.7 1.5 
1801 0 5 0.5 0.5 2.5 
1925 0 5 4.9 4.9 2.5 
2762 0 5 2.7 1.6 3.5 
3721 0 5 4.9 0.5 4.5 
3719 0 5 3.8 1.6 4.5 
3718 0 5 3.8 2.7 4.5 
3605 0 5 0.5 4.9 4.5 
4616 0 5 3.8 4.9 5.5 
6420 0 5 3.8 0.5 7.5 
6423 0 5 4.9 2.7 7.5 
7260 0 5 1.6 0.5 8.5 
7259 0 5 1.6 1.6 8.5 
7203 0 5 0.5 2.7 8.5 
7204 0 5 0.5 3.8 8.5 
8101 0 5 0.5 0.5 9.5 
9062 0 5 2.7 1.6 10.5 
9056 0 5 1.6 4.9 10.5 
9904 0 5 0.5 3.8 11.5 
9905 0 5 0.5 4.9 11.5 
10801 0 5 0.5 0.5 12.5 
11817 0 5 3.8 3.8 13.5 
12658 0 5 1.6 2.7 14.5 
13556 0 5 1.6 4.9 15.5 
14401 0 5 0.5 0.5 16.5 
14460 0 5 1.6 0.5 16.5 
15302 0 5 0.5 1.6 17.5 
15359 0 5 1.6 1.6 17.5 
15364 0 5 2.7 3.8 17.5 
15417 0 5 3.8 3.8 17.5 
16258 0 5 1.6 2.7 18.5 
16256 0 5 1.6 4.9 18.5 
17101 0 5 0.5 0.5 19.5 
17102 0 5 0.5 1.6 19.5 
18120 0 5 3.8 0.5 20.5 
18057 0 5 1.6 3.8 20.5 
19023 0 5 4.9 2.7 21.5 
19802 0 5 0.5 1.6 22.5 
19805 0 5 0.5 4.9 22.5 
21719 0 5 3.8 1.6 24.5 
21603 0 5 0.5 2.7 24.5 
21718 0 5 3.8 2.7 24.5 
21665 0 5 2.7 4.9 24.5 
23404 0 5 0.5 3.8 26.5 
24364 0 5 2.7 3.8 27.5 
25259 0 5 1.6 1.6 28.5 
26101 0 5 0.5 0.5 29.5 
26160 0 5 1.6 0.5 29.5 
26161 0 5 2.7 0.5 29.5 
66 0 5 2.7 6 0.5 
1853 0 5 1.6 8.2 2.5 
1913 0 5 3.8 8.2 2.5 
2753 0 5 1.6 8.2 3.5 
2769 0 5 2.7 9.3 3.5 
3655 0 5 1.6 6 4.5 
3713 0 5 3.8 8.2 4.5 
3670 0 5 2.7 10.4 4.5 
6414 0 5 3.8 7.1 7.5 
7269 0 5 2.7 9.3 8.5 
9055 0 5 1.6 6 10.5 
9067 0 5 2.7 7.1 10.5 
9111 0 5 3.8 10.4 10.5 
10027 0 5 4.9 7.1 11.5 
9910 0 5 0.5 10.4 11.5 
10930 0 5 4.9 10.4 12.5 
11707 0 5 0.5 7.1 13.5 
12654 0 5 1.6 7.1 14.5 
12652 0 5 1.6 9.3 14.5 
14453 0 5 1.6 8.2 16.5 
15355 0 5 1.6 6 17.5 
15353 0 5 1.6 8.2 17.5 
15368 0 5 2.7 8.2 17.5 
16206 0 5 0.5 6 18.5 
16269 0 5 2.7 9.3 18.5 
17108 0 5 0.5 8.2 19.5 
18006 0 5 0.5 6 20.5 
18068 0 5 2.7 8.2 20.5 
18009 0 5 0.5 9.3 20.5 
18970 0 5 2.7 10.4 21.5 
19854 0 5 1.6 7.1 22.5 
19869 0 5 2.7 9.3 22.5 
20707 0 5 0.5 7.1 23.5 
20828 0 5 4.9 8.2 23.5 
21667 0 5 2.7 7.1 24.5 
21668 0 5 2.7 8.2 24.5 
21729 0 5 4.9 9.3 24.5 
21610 0 5 0.5 10.4 24.5 
21651 0 5 1.6 10.4 24.5 
22506 0 5 0.5 6 25.5 
22566 0 5 2.7 6 25.5 
22507 0 5 0.5 7.1 25.5 
24366 0 5 2.7 6 27.5 
24353 0 5 1.6 8.2 27.5 
25255 0 5 1.6 6 28.5 
25266 0 5 2.7 6 28.5 
25209 0 5 0.5 9.3 28.5 
25210 0 5 0.5 10.4 28.5 
26167 0 5 2.7 7.1 29.5 
26152 0 5 1.6 9.3 29.5 
26151 0 5 1.6 10.4 29.5 
49 0 5 1.6 12.6 0.5 
72 0 5 2.7 12.6 0.5 
133 0 5 4.9 13.7 0.5 
46 0 5 1.6 15.9 0.5 
1813 0 5 0.5 13.7 2.5 
1908 0 5 3.8 13.7 2.5 
2715 0 5 0.5 15.9 3.5 
2806 0 5 3.8 15.9 3.5 
3612 0 5 0.5 12.6 4.5 
3614 0 5 0.5 14.8 4.5 
3706 0 5 3.8 15.9 4.5 
6312 0 5 0.5 12.6 7.5 
7331 0 5 4.9 11.5 8.5 
7333 0 5 4.9 13.7 8.5 
9133 0 5 4.9 13.7 10.5 
9135 0 5 4.9 15.9 10.5 
10933 0 5 4.9 13.7 12.5 
10847 0 5 1.6 14.8 12.5 
11712 0 5 0.5 12.6 13.5 
11773 0 5 2.7 13.7 13.5 
11807 0 5 3.8 14.8 13.5 
11715 0 5 0.5 15.9 13.5 
13548 0 5 1.6 13.7 15.5 
15349 0 5 1.6 12.6 17.5 
16212 0 5 0.5 12.6 18.5 
16332 0 5 4.9 12.6 18.5 
16215 0 5 0.5 15.9 18.5 
17112 0 5 0.5 12.6 19.5 
17209 0 5 3.8 12.6 19.5 
17115 0 5 0.5 15.9 19.5 
18131 0 5 4.9 11.5 20.5 
18075 0 5 2.7 15.9 20.5 
18972 0 5 2.7 12.6 21.5 
18975 0 5 2.7 15.9 21.5 
19931 0 5 4.9 11.5 22.5 
20713 0 5 0.5 13.7 23.5 
21709 0 5 3.8 12.6 24.5 
21614 0 5 0.5 14.8 24.5 
22631 0 5 4.9 11.5 25.5 
22549 0 5 1.6 12.6 25.5 
22635 0 5 4.9 15.9 25.5 
23510 0 5 3.8 11.5 26.5 
24372 0 5 2.7 12.6 27.5 
24373 0 5 2.7 13.7 27.5 
24374 0 5 2.7 14.8 27.5 
24434 0 5 4.9 14.8 27.5 
25308 0 5 3.8 13.7 28.5 
26111 0 5 0.5 11.5 29.5 
26147 0 5 1.6 14.8 29.5 
139 0 5 4.9 20.3 0.5 
1820 0 5 0.5 21.4 2.5 
3616 0 5 0.5 17 4.5 
4576 0 5 2.7 17 5.5 
4544 0 5 1.6 18.1 5.5 
4543 0 5 1.6 19.2 5.5 
4540 0 5 1.6 22.5 5.5 
7220 0 5 0.5 21.4 8.5 
8205 0 5 3.8 17 9.5 
8177 0 5 2.7 18.1 9.5 
8180 0 5 2.7 21.4 9.5 
9080 0 5 2.7 21.4 10.5 
10002 0 5 3.8 20.3 11.5 
9940 0 5 1.6 22.5 11.5 
10845 0 5 1.6 17 12.5 
10821 0 5 0.5 22.5 12.5 
11778 0 5 2.7 19.2 13.5 
11780 0 5 2.7 21.4 13.5 
13519 0 5 0.5 20.3 15.5 
13540 0 5 1.6 22.5 15.5 
14442 0 5 1.6 20.3 16.5 
15436 0 5 4.9 17 17.5 
15343 0 5 1.6 19.2 17.5 
15341 0 5 1.6 21.4 17.5 
15381 0 5 2.7 22.5 17.5 
16216 0 5 0.5 17 18.5 
17205 0 5 3.8 17 19.5 
18105 0 5 3.8 17 20.5 
18019 0 5 0.5 20.3 20.5 
18921 0 5 0.5 22.5 21.5 
19844 0 5 1.6 18.1 22.5 
20742 0 5 1.6 20.3 23.5 
20840 0 5 4.9 21.4 23.5 
20740 0 5 1.6 22.5 23.5 
20800 0 5 3.8 22.5 23.5 
21644 0 5 1.6 18.1 24.5 
21642 0 5 1.6 20.3 24.5 
21740 0 5 4.9 21.4 24.5 
22517 0 5 0.5 18.1 25.5 
22603 0 5 3.8 19.2 25.5 
22600 0 5 3.8 22.5 25.5 
23442 0 5 1.6 20.3 26.5 
23500 0 5 3.8 22.5 26.5 
24317 0 5 0.5 18.1 27.5 
24437 0 5 4.9 18.1 27.5 
24321 0 5 0.5 22.5 27.5 
26145 0 5 1.6 17 29.5 
26238 0 5 4.9 19.2 29.5 
26181 0 5 2.7 22.5 29.5 
26241 0 5 4.9 22.5 29.5 
939 0 5 1.6 23.6 1.5 
924 0 5 0.5 25.8 1.5 
996 0 5 3.8 26.9 1.5 
1837 0 5 1.6 25.8 2.5 
3622 0 5 0.5 23.6 4.5 
3638 0 5 1.6 24.7 4.5 
3625 0 5 0.5 26.9 4.5 
4599 0 5 3.8 23.6 5.5 
4538 0 5 1.6 24.7 5.5 
4583 0 5 2.7 24.7 5.5 
4536 0 5 1.6 26.9 5.5 
4585 0 5 2.7 26.9 5.5 
5486 0 5 2.7 28 6.5 
7236 0 5 1.6 26.9 8.5 
8137 0 5 1.6 25.8 9.5 
9143 0 5 4.9 24.7 10.5 
9084 0 5 2.7 25.8 10.5 
9937 0 5 1.6 25.8 11.5 
9935 0 5 1.6 28 11.5 
11782 0 5 2.7 23.6 13.5 
12684 0 5 2.7 25.8 14.5 
12745 0 5 4.9 26.9 14.5 
12686 0 5 2.7 28 14.5 
13537 0 5 1.6 25.8 15.5 
14439 0 5 1.6 23.6 16.5 
14542 0 5 4.9 23.6 16.5 
15399 0 5 3.8 23.6 17.5 
16346 0 5 4.9 28 18.5 
17199 0 5 3.8 23.6 19.5 
18922 0 5 0.5 23.6 21.5 
18983 0 5 2.7 24.7 21.5 
18995 0 5 3.8 28 21.5 
19839 0 5 1.6 23.6 22.5 
19942 0 5 4.9 23.6 22.5 
19837 0 5 1.6 25.8 22.5 
20725 0 5 0.5 26.9 23.5 
20845 0 5 4.9 26.9 23.5 
21742 0 5 4.9 23.6 24.5 
23499 0 5 3.8 23.6 26.5 
23438 0 5 1.6 24.7 26.5 
23496 0 5 3.8 26.9 26.5 
24326 0 5 0.5 28 27.5 
25222 0 5 0.5 23.6 28.5 
26137 0 5 1.6 25.8 29.5 
26186 0 5 2.7 28 29.5 
1889 0 5 2.7 31.3 2.5 
1891 0 5 3.8 32.4 2.5 
2727 0 5 0.5 29.1 3.5 
2730 0 5 0.5 32.4 3.5 
3632 0 5 1.6 31.3 4.5 
3631 0 5 1.6 32.4 4.5 
4589 0 5 2.7 31.3 5.5 
8188 0 5 2.7 30.2 9.5 
9088 0 5 2.7 30.2 10.5 
9032 0 5 1.6 31.3 10.5 
11791 0 5 3.8 32.4 13.5 
12748 0 5 4.9 30.2 14.5 
12750 0 5 4.9 32.4 14.5 
13534 0 5 1.6 29.1 15.5 
13649 0 5 4.9 31.3 15.5 
13650 0 5 4.9 32.4 15.5 
14429 0 5 0.5 31.3 16.5 
15387 0 5 2.7 29.1 17.5 
15449 0 5 4.9 31.3 17.5 
16290 0 5 2.7 32.4 18.5 
17131 0 5 1.6 32.4 19.5 
17190 0 5 2.7 32.4 19.5 
18028 0 5 0.5 30.2 20.5 
18928 0 5 0.5 30.2 21.5 
20848 0 5 4.9 30.2 23.5 
21633 0 5 1.6 30.2 24.5 
21629 0 5 0.5 31.3 24.5 
21749 0 5 4.9 31.3 24.5 
21630 0 5 0.5 32.4 24.5 
22527 0 5 0.5 29.1 25.5 
23494 0 5 3.8 29.1 26.5 
23548 0 5 4.9 30.2 26.5 
25294 0 5 3.8 29.1 28.5 
25350 0 5 4.9 32.4 28.5 
26189 0 5 2.7 31.3 29.5 
26190 0 5 2.7 32.4 29.5 
299 0 5 10.4 1.6 0.5 
2939 0 5 8.2 1.6 3.5 
2942 0 5 9.3 1.6 3.5 
2998 0 5 10.4 2.7 3.5 
3844 0 5 9.3 3.8 4.5 
4680 0 5 6 0.5 5.5 
4798 0 5 10.4 2.7 5.5 
5581 0 5 7.1 0.5 6.5 
5578 0 5 6 2.7 6.5 
6541 0 5 9.3 0.5 7.5 
7443 0 5 9.3 2.7 8.5 
7444 0 5 9.3 3.8 8.5 
8336 0 5 8.2 4.9 9.5 
10198 0 5 10.4 2.7 11.5 
11884 0 5 7.1 3.8 13.5 
13683 0 5 7.1 2.7 15.5 
13737 0 5 8.2 3.8 15.5 
14579 0 5 6 1.6 16.5 
14644 0 5 9.3 3.8 16.5 
15544 0 5 9.3 3.8 17.5 
15536 0 5 8.2 4.9 17.5 
16384 0 5 7.1 3.8 18.5 
16385 0 5 7.1 4.9 18.5 
16445 0 5 9.3 4.9 18.5 
17280 0 5 6 0.5 19.5 
17279 0 5 6 1.6 19.5 
18242 0 5 9.3 1.6 20.5 
18299 0 5 10.4 1.6 20.5 
18244 0 5 9.3 3.8 20.5 
19083 0 5 7.1 2.7 21.5 
19085 0 5 7.1 4.9 21.5 
19983 0 5 7.1 2.7 22.5 
19977 0 5 6 3.8 22.5 
22798 0 5 10.4 2.7 25.5 
22677 0 5 6 3.8 25.5 
23637 0 5 8.2 3.8 26.5 
24479 0 5 6 1.6 27.5 
24598 0 5 10.4 2.7 27.5 
24477 0 5 6 3.8 27.5 
26282 0 5 7.1 1.6 29.5 
26285 0 5 7.1 4.9 29.5 
1072 0 5 6 9.3 1.5 
2092 0 5 10.4 9.3 2.5 
3774 0 5 6 7.1 4.5 
3789 0 5 7.1 9.3 4.5 
3849 0 5 9.3 9.3 4.5 
4792 0 5 10.4 9.3 5.5 
4671 0 5 6 10.4 5.5 
5588 0 5 7.1 8.2 6.5 
5693 0 5 10.4 8.2 6.5 
5589 0 5 7.1 9.3 6.5 
7434 0 5 8.2 7.1 8.5 
7493 0 5 10.4 8.2 8.5 
7431 0 5 8.2 10.4 8.5 
7491 0 5 10.4 10.4 8.5 
8395 0 5 10.4 6 9.5 
8332 0 5 8.2 9.3 9.5 
9186 0 5 7.1 6 10.5 
9188 0 5 7.1 8.2 10.5 
9190 0 5 7.1 10.4 10.5 
10134 0 5 8.2 7.1 11.5 
12894 0 5 10.4 7.1 14.5 
16375 0 5 6 6 18.5 
17333 0 5 8.2 8.2 19.5 
18248 0 5 9.3 8.2 20.5 
18250 0 5 9.3 10.4 20.5 
18291 0 5 10.4 10.4 20.5 
19133 0 5 8.2 8.2 21.5 
19089 0 5 7.1 9.3 21.5 
19974 0 5 6 7.1 22.5 
20032 0 5 8.2 9.3 22.5 
19990 0 5 7.1 10.4 22.5 
20995 0 5 10.4 6 23.5 
20934 0 5 8.2 7.1 23.5 
20948 0 5 9.3 8.2 23.5 
20993 0 5 10.4 8.2 23.5 
21850 0 5 9.3 10.4 24.5 
23635 0 5 8.2 6 26.5 
23632 0 5 8.2 9.3 26.5 
26275 0 5 6 6 29.5 
26333 0 5 8.2 8.2 29.5 
2089 0 5 10.4 12.6 2.5 
2928 0 5 8.2 13.7 3.5 
2953 0 5 9.3 13.7 3.5 
2955 0 5 9.3 15.9 3.5 
3854 0 5 9.3 14.8 4.5 
8387 0 5 10.4 14.8 9.5 
8326 0 5 8.2 15.9 9.5 
9194 0 5 7.1 14.8 10.5 
10186 0 5 10.4 15.9 11.5 
11089 0 5 10.4 12.6 12.5 
10968 0 5 6 13.7 12.5 
11951 0 5 9.3 11.5 13.5 
12887 0 5 10.4 14.8 14.5 
13667 0 5 6 14.8 15.5 
13726 0 5 8.2 15.9 15.5 
13755 0 5 9.3 15.9 15.5 
17330 0 5 8.2 11.5 19.5 
18254 0 5 9.3 14.8 20.5 
19994 0 5 7.1 14.8 22.5 
20988 0 5 10.4 13.7 23.5 
22786 0 5 10.4 15.9 25.5 
23689 0 5 10.4 12.6 26.5 
23688 0 5 10.4 13.7 26.5 
24530 0 5 8.2 11.5 27.5 
24469 0 5 6 12.6 27.5 
24587 0 5 10.4 14.8 27.5 
24586 0 5 10.4 15.9 27.5 
26328 0 5 8.2 13.7 29.5 
26388 0 5 10.4 13.7 29.5 
285 0 5 10.4 17 0.5 
222 0 5 8.2 20.3 0.5 
282 0 5 10.4 20.3 0.5 
201 0 5 7.1 22.5 0.5 
1124 0 5 8.2 18.1 1.5 
2982 0 5 10.4 20.3 3.5 
3858 0 5 9.3 19.2 4.5 
4663 0 5 6 19.2 5.5 
4662 0 5 6 20.3 5.5 
6460 0 5 6 22.5 7.5 
7423 0 5 8.2 19.2 8.5 
8265 0 5 6 17 9.5 
10065 0 5 6 17 11.5 
10063 0 5 6 19.2 11.5 
11082 0 5 10.4 20.3 12.5 
11865 0 5 6 17 13.5 
12799 0 5 7.1 20.3 14.5 
12821 0 5 8.2 21.4 14.5 
13757 0 5 9.3 18.1 15.5 
15556 0 5 9.3 17 17.5 
17263 0 5 6 19.2 19.5 
17323 0 5 8.2 19.2 19.5 
17261 0 5 6 21.4 19.5 
17320 0 5 8.2 22.5 19.5 
19064 0 5 6 18.1 21.5 
19961 0 5 6 21.4 22.5 
21765 0 5 6 17 24.5 
24585 0 5 10.4 17 27.5 
24520 0 5 8.2 22.5 27.5 
25422 0 5 8.2 20.3 28.5 
26381 0 5 10.4 21.4 29.5 
157 0 5 6 25.8 0.5 
204 0 5 7.1 25.8 0.5 
216 0 5 8.2 26.9 0.5 
1177 0 5 10.4 25.8 1.5 
1055 0 5 6 28 1.5 
2017 0 5 8.2 25.8 2.5 
2065 0 5 9.3 26.9 2.5 
2066 0 5 9.3 28 2.5 
2979 0 5 10.4 23.6 3.5 
3863 0 5 9.3 24.7 4.5 
4658 0 5 6 24.7 5.5 
5678 0 5 10.4 24.7 6.5 
6457 0 5 6 25.8 7.5 
6566 0 5 9.3 28 7.5 
7359 0 5 6 23.6 8.5 
7404 0 5 7.1 25.8 8.5 
7417 0 5 8.2 25.8 8.5 
8303 0 5 7.1 24.7 9.5 
8378 0 5 10.4 24.7 9.5 
10056 0 5 6 26.9 11.5 
10105 0 5 7.1 26.9 11.5 
11063 0 5 9.3 24.7 12.5 
12757 0 5 6 25.8 14.5 
12804 0 5 7.1 25.8 14.5 
14555 0 5 6 28 16.5 
15458 0 5 6 24.7 17.5 
15563 0 5 9.3 24.7 17.5 
16465 0 5 9.3 26.9 18.5 
16476 0 5 10.4 26.9 18.5 
17258 0 5 6 24.7 19.5 
24502 0 5 7.1 23.6 27.5 
26258 0 5 6 24.7 29.5 
1167 0 5 9.3 29.1 1.5 
1954 0 5 6 29.1 2.5 
2074 0 5 10.4 29.1 2.5 
2068 0 5 9.3 30.2 2.5 
4653 0 5 6 30.2 5.5 
4651 0 5 6 32.4 5.5 
8374 0 5 10.4 29.1 9.5 
8313 0 5 8.2 30.2 9.5 
8370 0 5 9.3 32.4 9.5 
9152 0 5 6 31.3 10.5 
9211 0 5 8.2 32.4 10.5 
9271 0 5 10.4 32.4 10.5 
11068 0 5 9.3 30.2 12.5 
11009 0 5 7.1 31.3 12.5 
11012 0 5 8.2 31.3 12.5 
11912 0 5 8.2 31.3 13.5 
11971 0 5 10.4 32.4 13.5 
13773 0 5 10.4 30.2 15.5 
13770 0 5 9.3 32.4 15.5 
15574 0 5 10.4 29.1 17.5 
15573 0 5 10.4 30.2 17.5 
16474 0 5 10.4 29.1 18.5 
17374 0 5 10.4 29.1 19.5 
17251 0 5 6 32.4 19.5 
17371 0 5 10.4 32.4 19.5 
23551 0 5 6 32.4 26.5 
25408 0 5 7.1 30.2 28.5 
25409 0 5 7.1 31.3 28.5 
25410 0 5 7.1 32.4 28.5 
26252 0 5 6 31.3 29.5 
361 0 5 13.7 0.5 0.5 
1261 0 5 13.7 0.5 1.5 
1321 0 5 15.9 0.5 1.5 
1316 0 5 14.8 4.9 1.5 
2158 0 5 12.6 2.7 2.5 
2164 0 5 13.7 3.8 2.5 
2224 0 5 15.9 3.8 2.5 
3002 0 5 11.5 1.6 3.5 
4020 0 5 14.8 0.5 4.5 
8403 0 5 11.5 2.7 9.5 
8457 0 5 12.6 3.8 9.5 
9304 0 5 11.5 3.8 10.5 
11164 0 5 13.7 3.8 12.5 
11105 0 5 11.5 4.9 12.5 
12125 0 5 15.9 4.9 13.5 
14764 0 5 13.7 3.8 16.5 
15722 0 5 15.9 1.6 17.5 
15665 0 5 13.7 4.9 17.5 
15725 0 5 15.9 4.9 17.5 
17461 0 5 13.7 0.5 19.5 
18361 0 5 13.7 0.5 20.5 
18425 0 5 15.9 4.9 20.5 
19259 0 5 12.6 1.6 21.5 
21058 0 5 12.6 2.7 23.5 
21057 0 5 12.6 3.8 23.5 
22025 0 5 15.9 4.9 24.5 
23762 0 5 13.7 1.6 26.5 
24664 0 5 13.7 3.8 27.5 
24725 0 5 15.9 4.9 27.5 
25623 0 5 15.9 2.7 28.5 
25617 0 5 14.8 3.8 28.5 
415 0 5 14.8 6 0.5 
427 0 5 15.9 7.1 0.5 
413 0 5 14.8 8.2 0.5 
370 0 5 13.7 10.4 0.5 
1254 0 5 12.6 7.1 1.5 
1267 0 5 13.7 7.1 1.5 
1268 0 5 13.7 8.2 1.5 
2154 0 5 12.6 7.1 2.5 
2227 0 5 15.9 7.1 2.5 
2152 0 5 12.6 9.3 2.5 
3008 0 5 11.5 8.2 3.5 
4011 0 5 14.8 10.4 4.5 
4807 0 5 11.5 7.1 5.5 
4808 0 5 11.5 8.2 5.5 
4930 0 5 15.9 10.4 5.5 
5708 0 5 11.5 8.2 6.5 
6651 0 5 12.6 10.4 7.5 
8529 0 5 15.9 9.3 9.5 
8410 0 5 11.5 10.4 9.5 
11151 0 5 12.6 10.4 12.5 
12051 0 5 12.6 10.4 13.5 
14752 0 5 12.6 9.3 16.5 
14769 0 5 13.7 9.3 16.5 
15668 0 5 13.7 8.2 17.5 
15669 0 5 13.7 9.3 17.5 
16507 0 5 11.5 7.1 18.5 
16611 0 5 14.8 10.4 18.5 
16630 0 5 15.9 10.4 18.5 
18429 0 5 15.9 9.3 20.5 
19313 0 5 14.8 8.2 21.5 
19209 0 5 11.5 9.3 21.5 
19269 0 5 13.7 9.3 21.5 
19251 0 5 12.6 10.4 21.5 
20155 0 5 12.6 6 22.5 
20227 0 5 15.9 7.1 22.5 
21006 0 5 11.5 6 23.5 
21054 0 5 12.6 7.1 23.5 
21130 0 5 15.9 10.4 23.5 
21967 0 5 13.7 7.1 24.5 
21951 0 5 12.6 10.4 24.5 
22855 0 5 12.6 6 25.5 
22854 0 5 12.6 7.1 25.5 
22868 0 5 13.7 8.2 25.5 
23766 0 5 13.7 6 26.5 
24670 0 5 13.7 10.4 27.5 
25612 0 5 14.8 9.3 28.5 
26527 0 5 15.9 7.1 29.5 
432 0 5 15.9 12.6 0.5 
2148 0 5 12.6 13.7 2.5 
3106 0 5 14.8 15.9 3.5 
4006 0 5 14.8 15.9 4.5 
5750 0 5 12.6 11.5 6.5 
5747 0 5 12.6 14.8 6.5 
6734 0 5 15.9 14.8 7.5 
8471 0 5 13.7 11.5 9.5 
8446 0 5 12.6 15.9 9.5 
9407 0 5 14.8 14.8 10.5 
10249 0 5 12.6 12.6 11.5 
11115 0 5 11.5 15.9 12.5 
12911 0 5 11.5 11.5 14.5 
13033 0 5 15.9 13.7 14.5 
12946 0 5 12.6 15.9 14.5 
13908 0 5 14.8 13.7 15.5 
13847 0 5 12.6 14.8 15.5 
14773 0 5 13.7 13.7 16.5 
15706 0 5 14.8 15.9 17.5 
18373 0 5 13.7 13.7 20.5 
20173 0 5 13.7 13.7 22.5 
21074 0 5 13.7 14.8 23.5 
21975 0 5 13.7 15.9 24.5 
22934 0 5 15.9 14.8 25.5 
23715 0 5 11.5 15.9 26.5 
24611 0 5 11.5 11.5 27.5 
24733 0 5 15.9 13.7 27.5 
24615 0 5 11.5 15.9 27.5 
25548 0 5 12.6 13.7 28.5 
1279 0 5 13.7 20.3 1.5 
2143 0 5 12.6 19.2 2.5 
2178 0 5 13.7 19.2 2.5 
2238 0 5 15.9 19.2 2.5 
2180 0 5 13.7 21.4 2.5 
3018 0 5 11.5 19.2 3.5 
3101 0 5 14.8 21.4 3.5 
3100 0 5 14.8 22.5 3.5 
3921 0 5 11.5 22.5 4.5 
3940 0 5 12.6 22.5 4.5 
4000 0 5 14.8 22.5 4.5 
4904 0 5 14.8 18.1 5.5 
4900 0 5 14.8 22.5 5.5 
5716 0 5 11.5 17 6.5 
5803 0 5 14.8 19.2 6.5 
5838 0 5 15.9 19.2 6.5 
6678 0 5 13.7 19.2 7.5 
7577 0 5 13.7 18.1 8.5 
7604 0 5 14.8 18.1 8.5 
8444 0 5 12.6 18.1 9.5 
8538 0 5 15.9 19.2 9.5 
8421 0 5 11.5 22.5 9.5 
8481 0 5 13.7 22.5 9.5 
9319 0 5 11.5 20.3 10.5 
9402 0 5 14.8 20.3 10.5 
10244 0 5 12.6 18.1 11.5 
11117 0 5 11.5 18.1 12.5 
12105 0 5 14.8 17 13.5 
12042 0 5 12.6 20.3 13.5 
13005 0 5 14.8 17 14.5 
13843 0 5 12.6 19.2 15.5 
14837 0 5 15.9 18.1 16.5 
14741 0 5 12.6 21.4 16.5 
15705 0 5 14.8 17 17.5 
15643 0 5 12.6 19.2 17.5 
15678 0 5 13.7 19.2 17.5 
15701 0 5 14.8 21.4 17.5 
16544 0 5 12.6 18.1 18.5 
16604 0 5 14.8 18.1 18.5 
16602 0 5 14.8 20.3 18.5 
17541 0 5 15.9 22.5 19.5 
18437 0 5 15.9 18.1 20.5 
18441 0 5 15.9 22.5 20.5 
19219 0 5 11.5 20.3 21.5 
19341 0 5 15.9 22.5 21.5 
20176 0 5 13.7 17 22.5 
21979 0 5 13.7 20.3 24.5 
22845 0 5 12.6 17 25.5 
22902 0 5 14.8 20.3 25.5 
24681 0 5 13.7 22.5 27.5 
25577 0 5 13.7 18.1 28.5 
25543 0 5 12.6 19.2 28.5 
26421 0 5 11.5 22.5 29.5 
338 0 5 12.6 24.7 0.5 
3098 0 5 14.8 24.7 3.5 
3097 0 5 14.8 25.8 3.5 
5739 0 5 12.6 23.6 6.5 
5738 0 5 12.6 24.7 6.5 
5726 0 5 11.5 28 6.5 
6682 0 5 13.7 23.6 7.5 
7537 0 5 12.6 25.8 8.5 
7595 0 5 14.8 28 8.5 
8495 0 5 14.8 28 9.5 
9399 0 5 14.8 23.6 10.5 
10238 0 5 12.6 24.7 11.5 
10283 0 5 13.7 24.7 11.5 
10295 0 5 14.8 28 11.5 
11199 0 5 14.8 23.6 12.5 
12038 0 5 12.6 24.7 13.5 
12144 0 5 15.9 25.8 13.5 
12086 0 5 13.7 28 13.5 
13825 0 5 11.5 26.9 15.5 
16595 0 5 14.8 28 18.5 
17543 0 5 15.9 24.7 19.5 
17436 0 5 12.6 26.9 19.5 
17495 0 5 14.8 28 19.5 
18445 0 5 15.9 26.9 20.5 
19223 0 5 11.5 24.7 21.5 
19344 0 5 15.9 25.8 21.5 
22838 0 5 12.6 24.7 25.5 
22945 0 5 15.9 26.9 25.5 
24635 0 5 12.6 28 27.5 
24686 0 5 13.7 28 27.5 
25585 0 5 13.7 26.9 28.5 
26484 0 5 13.7 25.8 29.5 
4894 0 5 14.8 29.1 5.5 
4892 0 5 14.8 31.3 5.5 
5793 0 5 14.8 30.2 6.5 
6748 0 5 15.9 30.2 7.5 
6749 0 5 15.9 31.3 7.5 
7588 0 5 13.7 30.2 8.5 
8494 0 5 14.8 29.1 9.5 
8488 0 5 13.7 30.2 9.5 
9393 0 5 14.8 30.2 10.5 
10289 0 5 13.7 31.3 11.5 
10291 0 5 14.8 32.4 11.5 
11188 0 5 13.7 30.2 12.5 
12088 0 5 13.7 30.2 13.5 
12029 0 5 11.5 31.3 13.5 
15694 0 5 14.8 29.1 17.5 
15689 0 5 13.7 31.3 17.5 
17493 0 5 14.8 30.2 19.5 
19234 0 5 12.6 29.1 21.5 
19233 0 5 12.6 30.2 21.5 
19292 0 5 14.8 31.3 21.5 
20250 0 5 15.9 32.4 22.5 
21091 0 5 14.8 32.4 23.5 
21934 0 5 12.6 29.1 24.5 
21928 0 5 11.5 30.2 24.5 
22050 0 5 15.9 32.4 24.5 
22833 0 5 12.6 30.2 25.5 
22890 0 5 13.7 32.4 25.5 
24688 0 5 13.7 30.2 27.5 
25588 0 5 13.7 30.2 28.5 
25589 0 5 13.7 31.3 28.5 
600 0 5 21.4 0.5 0.5 
476 0 5 17 4.9 0.5 
1378 0 5 17 2.7 1.5 
2277 0 5 17 3.8 2.5 
2397 0 5 21.4 3.8 2.5 
3237 0 5 19.2 3.8 3.5 
4201 0 5 22.5 0.5 4.5 
4199 0 5 21.4 1.6 4.5 
5883 0 5 18.1 2.7 6.5 
5945 0 5 20.3 4.9 6.5 
6841 0 5 20.3 0.5 7.5 
6903 0 5 22.5 2.7 7.5 
6896 0 5 21.4 4.9 7.5 
7679 0 5 17 1.6 8.5 
7682 0 5 18.1 1.6 8.5 
8637 0 5 19.2 3.8 9.5 
9599 0 5 21.4 1.6 10.5 
9597 0 5 21.4 3.8 10.5 
9545 0 5 20.3 4.9 10.5 
11402 0 5 22.5 1.6 12.5 
11397 0 5 21.4 3.8 12.5 
12239 0 5 19.2 1.6 13.5 
12242 0 5 20.3 1.6 13.5 
12185 0 5 18.1 4.9 13.5 
12245 0 5 20.3 4.9 13.5 
13081 0 5 18.1 0.5 14.5 
13139 0 5 19.2 1.6 14.5 
13083 0 5 18.1 2.7 14.5 
14102 0 5 22.5 1.6 15.5 
14936 0 5 19.2 4.9 16.5 
15840 0 5 19.2 0.5 17.5 
16802 0 5 22.5 1.6 18.5 
17642 0 5 20.3 1.6 19.5 
17584 0 5 18.1 3.8 19.5 
17637 0 5 19.2 3.8 19.5 
17645 0 5 20.3 4.9 19.5 
19380 0 5 17 0.5 21.5 
20285 0 5 18.1 4.9 22.5 
21241 0 5 20.3 0.5 23.5 
21242 0 5 20.3 1.6 23.5 
21302 0 5 22.5 1.6 23.5 
21296 0 5 21.4 4.9 23.5 
22081 0 5 18.1 0.5 24.5 
23040 0 5 19.2 0.5 25.5 
23038 0 5 19.2 2.7 25.5 
23097 0 5 21.4 3.8 25.5 
23096 0 5 21.4 4.9 25.5 
23941 0 5 20.3 0.5 26.5 
25739 0 5 19.2 1.6 28.5 
25802 0 5 22.5 1.6 28.5 
25737 0 5 19.2 3.8 28.5 
25685 0 5 18.1 4.9 28.5 
26698 0 5 21.4 2.7 29.5 
26584 0 5 18.1 3.8 29.5 
534 0 5 19.2 7.1 0.5 
593 0 5 21.4 8.2 0.5 
1374 0 5 17 7.1 1.5 
1372 0 5 17 9.3 1.5 
1389 0 5 18.1 9.3 1.5 
2350 0 5 20.3 10.4 2.5 
3308 0 5 22.5 8.2 3.5 
5048 0 5 20.3 8.2 5.5 
4989 0 5 18.1 9.3 5.5 
6909 0 5 22.5 9.3 7.5 
7806 0 5 22.5 6 8.5 
7808 0 5 22.5 8.2 8.5 
7749 0 5 20.3 9.3 8.5 
8575 0 5 17 6 9.5 
9606 0 5 22.5 6 10.5 
9607 0 5 22.5 7.1 10.5 
9591 0 5 21.4 10.4 10.5 
9610 0 5 22.5 10.4 10.5 
10495 0 5 21.4 6 11.5 
11347 0 5 20.3 7.1 12.5 
11407 0 5 22.5 7.1 12.5 
12189 0 5 18.1 9.3 13.5 
13195 0 5 21.4 6 14.5 
13147 0 5 20.3 7.1 14.5 
13088 0 5 18.1 8.2 14.5 
13132 0 5 19.2 9.3 14.5 
13150 0 5 20.3 10.4 14.5 
14046 0 5 20.3 6 15.5 
15774 0 5 17 7.1 17.5 
15787 0 5 18.1 7.1 17.5 
15850 0 5 20.3 10.4 17.5 
16689 0 5 18.1 9.3 18.5 
17695 0 5 21.4 6 19.5 
17708 0 5 22.5 8.2 19.5 
19390 0 5 18.1 10.4 21.5 
20392 0 5 21.4 9.3 22.5 
21174 0 5 17 7.1 23.5 
21307 0 5 22.5 7.1 23.5 
21231 0 5 19.2 10.4 23.5 
22074 0 5 17 7.1 24.5 
22090 0 5 18.1 10.4 24.5 
23031 0 5 19.2 10.4 25.5 
24906 0 5 22.5 6 27.5 
24773 0 5 17 8.2 27.5 
24893 0 5 21.4 8.2 27.5 
24772 0 5 17 9.3 27.5 
25746 0 5 20.3 6 28.5 
25674 0 5 17 7.1 28.5 
25733 0 5 19.2 8.2 28.5 
25690 0 5 18.1 10.4 28.5 
588 0 5 21.4 13.7 0.5 
1368 0 5 17 13.7 1.5 
2327 0 5 19.2 14.8 2.5 
2295 0 5 18.1 15.9 2.5 
3169 0 5 17 12.6 3.5 
4991 0 5 18.1 11.5 5.5 
4994 0 5 18.1 14.8 5.5 
5114 0 5 22.5 14.8 5.5 
5952 0 5 20.3 12.6 6.5 
6830 0 5 19.2 11.5 7.5 
6852 0 5 20.3 12.6 7.5 
8569 0 5 17 12.6 9.5 
8629 0 5 19.2 12.6 9.5 
9493 0 5 18.1 13.7 10.5 
9494 0 5 18.1 14.8 10.5 
9587 0 5 21.4 14.8 10.5 
10488 0 5 21.4 13.7 11.5 
11351 0 5 20.3 11.5 12.5 
12194 0 5 18.1 14.8 13.5 
13190 0 5 21.4 11.5 14.5 
13126 0 5 19.2 15.9 14.5 
14030 0 5 19.2 11.5 15.5 
14051 0 5 20.3 11.5 15.5 
14052 0 5 20.3 12.6 15.5 
14027 0 5 19.2 14.8 15.5 
13966 0 5 17 15.9 15.5 
14929 0 5 19.2 12.6 16.5 
14954 0 5 20.3 14.8 16.5 
15793 0 5 18.1 13.7 17.5 
16729 0 5 19.2 12.6 18.5 
17712 0 5 22.5 12.6 19.5 
17713 0 5 22.5 13.7 19.5 
18586 0 5 21.4 15.9 20.5 
19391 0 5 18.1 11.5 21.5 
20411 0 5 22.5 11.5 22.5 
20266 0 5 17 15.9 22.5 
22092 0 5 18.1 12.6 24.5 
22153 0 5 20.3 13.7 24.5 
22066 0 5 17 15.9 24.5 
22991 0 5 18.1 11.5 25.5 
23052 0 5 20.3 12.6 25.5 
22993 0 5 18.1 13.7 25.5 
22995 0 5 18.1 15.9 25.5 
23026 0 5 19.2 15.9 25.5 
24792 0 5 18.1 12.6 27.5 
24829 0 5 19.2 12.6 27.5 
24889 0 5 21.4 12.6 27.5 
24886 0 5 21.4 15.9 27.5 
25790 0 5 21.4 11.5 28.5 
26655 0 5 20.3 15.9 29.5 
499 0 5 18.1 20.3 0.5 
1364 0 5 17 18.1 1.5 
2296 0 5 18.1 17 2.5 
2298 0 5 18.1 19.2 2.5 
2420 0 5 22.5 21.4 2.5 
3162 0 5 17 20.3 3.5 
5117 0 5 22.5 18.1 5.5 
5059 0 5 20.3 20.3 5.5 
5001 0 5 18.1 22.5 5.5 
6017 0 5 22.5 18.1 6.5 
5898 0 5 18.1 19.2 6.5 
5958 0 5 20.3 19.2 6.5 
5900 0 5 18.1 21.4 6.5 
6798 0 5 18.1 19.2 7.5 
6799 0 5 18.1 20.3 7.5 
7699 0 5 18.1 20.3 8.5 
7820 0 5 22.5 21.4 8.5 
8624 0 5 19.2 18.1 9.5 
8562 0 5 17 20.3 9.5 
9582 0 5 21.4 20.3 10.5 
12161 0 5 17 21.4 13.5 
12201 0 5 18.1 22.5 13.5 
14056 0 5 20.3 17 15.5 
14022 0 5 19.2 20.3 15.5 
14957 0 5 20.3 18.1 16.5 
15021 0 5 22.5 22.5 16.5 
15861 0 5 20.3 22.5 17.5 
16782 0 5 21.4 20.3 18.5 
16720 0 5 19.2 22.5 18.5 
18463 0 5 17 19.2 20.5 
19396 0 5 18.1 17 21.5 
19482 0 5 21.4 20.3 21.5 
19480 0 5 21.4 22.5 21.5 
20296 0 5 18.1 17 22.5 
20263 0 5 17 19.2 22.5 
20381 0 5 21.4 21.4 22.5 
20301 0 5 18.1 22.5 22.5 
21161 0 5 17 21.4 23.5 
22184 0 5 21.4 18.1 24.5 
22182 0 5 21.4 20.3 24.5 
23085 0 5 21.4 17 25.5 
23925 0 5 19.2 17 26.5 
23864 0 5 17 18.1 26.5 
24017 0 5 22.5 18.1 26.5 
24762 0 5 17 20.3 27.5 
25697 0 5 18.1 18.1 28.5 
25784 0 5 21.4 18.1 28.5 
26657 0 5 20.3 18.1 29.5 
26682 0 5 21.4 20.3 29.5 
577 0 5 21.4 25.8 0.5 
3159 0 5 17 23.6 3.5 
3219 0 5 19.2 23.6 3.5 
3158 0 5 17 24.7 3.5 
3215 0 5 19.2 28 3.5 
3275 0 5 21.4 28 3.5 
5064 0 5 20.3 25.8 5.5 
5076 0 5 21.4 26.9 5.5 
5006 0 5 18.1 28 5.5 
5903 0 5 18.1 24.7 6.5 
5978 0 5 21.4 24.7 6.5 
6817 0 5 19.2 25.8 7.5 
7762 0 5 20.3 23.6 8.5 
7703 0 5 18.1 24.7 8.5 
8604 0 5 18.1 25.8 9.5 
8617 0 5 19.2 25.8 9.5 
8606 0 5 18.1 28 9.5 
9505 0 5 18.1 26.9 10.5 
10419 0 5 19.2 23.6 11.5 
11257 0 5 17 25.8 12.5 
11304 0 5 18.1 25.8 12.5 
11376 0 5 21.4 26.9 12.5 
12278 0 5 21.4 24.7 13.5 
13222 0 5 22.5 23.6 14.5 
14062 0 5 20.3 23.6 15.5 
14917 0 5 19.2 25.8 16.5 
15024 0 5 22.5 25.8 16.5 
15923 0 5 22.5 24.7 17.5 
15926 0 5 22.5 28 17.5 
16763 0 5 20.3 24.7 18.5 
17662 0 5 20.3 23.6 19.5 
17724 0 5 22.5 25.8 19.5 
18565 0 5 20.3 26.9 20.5 
19462 0 5 20.3 23.6 21.5 
19418 0 5 19.2 24.7 21.5 
20304 0 5 18.1 25.8 22.5 
20317 0 5 19.2 25.8 22.5 
20364 0 5 20.3 25.8 22.5 
20315 0 5 19.2 28 22.5 
20366 0 5 20.3 28 22.5 
21322 0 5 22.5 23.6 23.5 
21323 0 5 22.5 24.7 23.5 
22056 0 5 17 26.9 24.5 
23077 0 5 21.4 25.8 25.5 
23902 0 5 18.1 23.6 26.5 
23918 0 5 19.2 24.7 26.5 
23904 0 5 18.1 25.8 26.5 
24024 0 5 22.5 25.8 26.5 
24866 0 5 20.3 28 27.5 
26617 0 5 19.2 25.8 29.5 
26606 0 5 18.1 28 29.5 
26675 0 5 21.4 28 29.5 
1529 0 5 22.5 31.3 1.5 
1530 0 5 22.5 32.4 1.5 
2430 0 5 22.5 32.4 2.5 
3213 0 5 19.2 30.2 3.5 
5007 0 5 18.1 29.1 5.5 
5068 0 5 20.3 30.2 5.5 
4952 0 5 17 31.3 5.5 
5907 0 5 18.1 29.1 6.5 
6754 0 5 17 29.1 7.5 
6927 0 5 22.5 29.1 7.5 
6753 0 5 17 30.2 7.5 
6929 0 5 22.5 31.3 7.5 
6930 0 5 22.5 32.4 7.5 
8612 0 5 19.2 31.3 9.5 
9451 0 5 17 32.4 10.5 
10528 0 5 22.5 30.2 11.5 
10409 0 5 18.1 31.3 11.5 
11367 0 5 20.3 29.1 12.5 
11313 0 5 19.2 30.2 12.5 
11312 0 5 19.2 31.3 12.5 
11370 0 5 20.3 32.4 12.5 
13954 0 5 17 29.1 15.5 
14127 0 5 22.5 29.1 15.5 
13951 0 5 17 32.4 15.5 
14852 0 5 17 31.3 16.5 
15928 0 5 22.5 30.2 17.5 
16708 0 5 18.1 30.2 18.5 
16770 0 5 20.3 32.4 18.5 
18573 0 5 21.4 30.2 20.5 
19411 0 5 19.2 32.4 21.5 
20368 0 5 20.3 30.2 22.5 
20371 0 5 21.4 32.4 22.5 
22228 0 5 22.5 30.2 24.5 
22952 0 5 17 31.3 25.5 
23010 0 5 18.1 32.4 25.5 
24029 0 5 22.5 31.3 26.5 
23910 0 5 18.1 32.4 26.5 
720 0 5 25.8 0.5 0.5 
1680 0 5 28 0.5 1.5 
5221 0 5 26.9 0.5 5.5 
5280 0 5 28 0.5 5.5 
5162 0 5 24.7 1.6 5.5 
7919 0 5 25.8 1.6 8.5 
8820 0 5 25.8 0.5 9.5 
8756 0 5 23.6 4.9 9.5 
9662 0 5 24.7 1.6 10.5 
9718 0 5 25.8 2.7 10.5 
10676 0 5 28 4.9 11.5 
11519 0 5 25.8 1.6 12.5 
11522 0 5 26.9 1.6 12.5 
12362 0 5 24.7 1.6 13.5 
12358 0 5 23.6 2.7 13.5 
13263 0 5 24.7 2.7 14.5 
13324 0 5 26.9 3.8 14.5 
13316 0 5 25.8 4.9 14.5 
14217 0 5 25.8 3.8 15.5 
15119 0 5 25.8 1.6 16.5 
16019 0 5 25.8 1.6 17.5 
16077 0 5 28 3.8 17.5 
16863 0 5 24.7 2.7 18.5 
16916 0 5 25.8 4.9 18.5 
17816 0 5 25.8 4.9 19.5 
18657 0 5 23.6 3.8 20.5 
18665 0 5 24.7 4.9 20.5 
19680 0 5 28 0.5 21.5 
20460 0 5 23.6 0.5 22.5 
20461 0 5 24.7 0.5 22.5 
22321 0 5 26.9 0.5 24.5 
22324 0 5 26.9 3.8 24.5 
22316 0 5 25.8 4.9 24.5 
22325 0 5 26.9 4.9 24.5 
25021 0 5 26.9 0.5 27.5 
24964 0 5 24.7 3.8 27.5 
25025 0 5 26.9 4.9 27.5 
25917 0 5 25.8 3.8 28.5 
25916 0 5 25.8 4.9 28.5 
26820 0 5 25.8 0.5 29.5 
26825 0 5 26.9 4.9 29.5 
666 0 5 24.7 6 0.5 
712 0 5 25.8 9.3 0.5 
2469 0 5 24.7 9.3 2.5 
4314 0 5 25.8 7.1 4.5 
5227 0 5 26.9 7.1 5.5 
5229 0 5 26.9 9.3 5.5 
5272 0 5 28 9.3 5.5 
7013 0 5 25.8 8.2 7.5 
7012 0 5 25.8 9.3 7.5 
7029 0 5 26.9 9.3 7.5 
8754 0 5 23.6 7.1 9.5 
8830 0 5 26.9 10.4 9.5 
9714 0 5 25.8 7.1 10.5 
9772 0 5 28 9.3 10.5 
11455 0 5 23.6 6 12.5 
11514 0 5 25.8 7.1 12.5 
12413 0 5 25.8 8.2 13.5 
12370 0 5 24.7 10.4 13.5 
13328 0 5 26.9 8.2 14.5 
14168 0 5 24.7 8.2 15.5 
14212 0 5 25.8 9.3 15.5 
15128 0 5 26.9 8.2 16.5 
15111 0 5 25.8 10.4 16.5 
16866 0 5 24.7 6 18.5 
16930 0 5 26.9 10.4 18.5 
18670 0 5 24.7 10.4 20.5 
20571 0 5 28 10.4 22.5 
21415 0 5 25.8 6 23.5 
21428 0 5 26.9 8.2 23.5 
21471 0 5 28 10.4 23.5 
22328 0 5 26.9 8.2 24.5 
25014 0 5 25.8 7.1 27.5 
25030 0 5 26.9 10.4 27.5 
25866 0 5 24.7 6 28.5 
25974 0 5 28 7.1 28.5 
26755 0 5 23.6 6 29.5 
26873 0 5 28 8.2 29.5 
1631 0 5 26.9 11.5 1.5 
1575 0 5 24.7 15.9 1.5 
2471 0 5 24.7 11.5 2.5 
4307 0 5 25.8 14.8 4.5 
5231 0 5 26.9 11.5 5.5 
5233 0 5 26.9 13.7 5.5 
5175 0 5 24.7 15.9 5.5 
6972 0 5 24.7 12.6 7.5 
6974 0 5 24.7 14.8 7.5 
7007 0 5 25.8 14.8 7.5 
7006 0 5 25.8 15.9 7.5 
7850 0 5 23.6 11.5 8.5 
7931 0 5 26.9 11.5 8.5 
7967 0 5 28 14.8 8.5 
8806 0 5 25.8 15.9 9.5 
9675 0 5 24.7 15.9 10.5 
11532 0 5 26.9 12.6 12.5 
12371 0 5 24.7 11.5 13.5 
16871 0 5 24.7 11.5 18.5 
16909 0 5 25.8 12.6 18.5 
17808 0 5 25.8 13.7 19.5 
17834 0 5 26.9 14.8 19.5 
18673 0 5 24.7 13.7 20.5 
19609 0 5 25.8 12.6 21.5 
19607 0 5 25.8 14.8 21.5 
19575 0 5 24.7 15.9 21.5 
20569 0 5 28 12.6 22.5 
21467 0 5 28 14.8 23.5 
22333 0 5 26.9 13.7 24.5 
23146 0 5 23.6 15.9 25.5 
24134 0 5 26.9 14.8 26.5 
25009 0 5 25.8 12.6 27.5 
25846 0 5 23.6 15.9 28.5 
26747 0 5 23.6 14.8 29.5 
736 0 5 26.9 17 0.5 
738 0 5 26.9 19.2 0.5 
3437 0 5 26.9 18.1 3.5 
4364 0 5 28 18.1 4.5 
4302 0 5 25.8 20.3 4.5 
4361 0 5 28 21.4 4.5 
5236 0 5 26.9 17 5.5 
5178 0 5 24.7 19.2 5.5 
5179 0 5 24.7 20.3 5.5 
7005 0 5 25.8 17 7.5 
7000 0 5 25.8 22.5 7.5 
7905 0 5 25.8 17 8.5 
7904 0 5 25.8 18.1 8.5 
7843 0 5 23.6 19.2 8.5 
7961 0 5 28 21.4 8.5 
7941 0 5 26.9 22.5 8.5 
7960 0 5 28 22.5 8.5 
8778 0 5 24.7 19.2 9.5 
8779 0 5 24.7 20.3 9.5 
9677 0 5 24.7 18.1 10.5 
9738 0 5 26.9 19.2 10.5 
9741 0 5 26.9 22.5 10.5 
10640 0 5 26.9 21.4 11.5 
10660 0 5 28 22.5 11.5 
11476 0 5 24.7 17 12.5 
11505 0 5 25.8 17 12.5 
11500 0 5 25.8 22.5 12.5 
12344 0 5 23.6 18.1 13.5 
12440 0 5 26.9 21.4 13.5 
12400 0 5 25.8 22.5 13.5 
14265 0 5 28 17 15.5 
15044 0 5 23.6 18.1 16.5 
15101 0 5 25.8 21.4 16.5 
15140 0 5 26.9 21.4 16.5 
16039 0 5 26.9 20.3 17.5 
15981 0 5 24.7 22.5 17.5 
16876 0 5 24.7 17 18.5 
16843 0 5 23.6 19.2 18.5 
16903 0 5 25.8 19.2 18.5 
17743 0 5 23.6 19.2 19.5 
17838 0 5 26.9 19.2 19.5 
17841 0 5 26.9 22.5 19.5 
18681 0 5 24.7 22.5 20.5 
19641 0 5 26.9 22.5 21.5 
20442 0 5 23.6 20.3 22.5 
21465 0 5 28 17 23.5 
21378 0 5 24.7 19.2 23.5 
21439 0 5 26.9 20.3 23.5 
21380 0 5 24.7 21.4 23.5 
21440 0 5 26.9 21.4 23.5 
21460 0 5 28 22.5 23.5 
22305 0 5 25.8 17 24.5 
23144 0 5 23.6 18.1 25.5 
23178 0 5 24.7 19.2 25.5 
24080 0 5 24.7 21.4 26.5 
25003 0 5 25.8 19.2 27.5 
25002 0 5 25.8 20.3 27.5 
25936 0 5 26.9 17 28.5 
25965 0 5 28 17 28.5 
25878 0 5 24.7 19.2 28.5 
25902 0 5 25.8 20.3 28.5 
26837 0 5 26.9 18.1 29.5 
26862 0 5 28 20.3 29.5 
744 0 5 26.9 25.8 0.5 
745 0 5 26.9 26.9 0.5 
1586 0 5 24.7 28 1.5 
2483 0 5 24.7 24.7 2.5 
3339 0 5 23.6 23.6 3.5 
3442 0 5 26.9 23.6 3.5 
5184 0 5 24.7 25.8 5.5 
5245 0 5 26.9 26.9 5.5 
6035 0 5 23.6 28 6.5 
6146 0 5 26.9 28 6.5 
6983 0 5 24.7 24.7 7.5 
6997 0 5 25.8 25.8 7.5 
7898 0 5 25.8 24.7 8.5 
7943 0 5 26.9 24.7 8.5 
9636 0 5 23.6 26.9 10.5 
9756 0 5 28 26.9 10.5 
10537 0 5 23.6 25.8 11.5 
10646 0 5 26.9 28 11.5 
12442 0 5 26.9 23.6 13.5 
13342 0 5 26.9 23.6 14.5 
15099 0 5 25.8 23.6 16.5 
15142 0 5 26.9 23.6 16.5 
15938 0 5 23.6 24.7 17.5 
16882 0 5 24.7 23.6 18.5 
16943 0 5 26.9 24.7 18.5 
17845 0 5 26.9 26.9 19.5 
17846 0 5 26.9 28 19.5 
17855 0 5 28 28 19.5 
18695 0 5 25.8 28 20.5 
19597 0 5 25.8 25.8 21.5 
20483 0 5 24.7 24.7 22.5 
20484 0 5 24.7 25.8 22.5 
21459 0 5 28 23.6 23.5 
22238 0 5 23.6 24.7 24.5 
22283 0 5 24.7 24.7 24.5 
22344 0 5 26.9 25.8 24.5 
22356 0 5 28 26.9 24.5 
22295 0 5 25.8 28 24.5 
23258 0 5 28 24.7 25.5 
23184 0 5 24.7 25.8 25.5 
23245 0 5 26.9 26.9 25.5 
24142 0 5 26.9 23.6 26.5 
24095 0 5 25.8 28 26.5 
24155 0 5 28 28 26.5 
24983 0 5 24.7 24.7 27.5 
25045 0 5 26.9 26.9 27.5 
25056 0 5 28 26.9 27.5 
25883 0 5 24.7 24.7 28.5 
25885 0 5 24.7 26.9 28.5 
25946 0 5 26.9 28 28.5 
26843 0 5 26.9 24.7 29.5 
1593 0 5 25.8 30.2 1.5 
4294 0 5 25.8 29.1 4.5 
4347 0 5 26.9 29.1 4.5 
5251 0 5 28 32.4 5.5 
6154 0 5 28 29.1 6.5 