9000
Atoms. Timestep: 0
O 1.401710 1.031620 1.784690
O 2.217190 1.549670 1.934300
O 2.035510 2.338940 2.345930
O 2.293770 1.152620 3.468610
O 1.365880 1.146340 3.729320
O 2.636550 1.780950 2.876720
O 1.500630 1.074130 29.467200
O 1.426950 1.137670 28.518700
O 1.112260 1.696010 30.529600
O 1.466800 2.289210 31.217000
O 1.689830 0.961132 30.427700
O 1.034180 2.150280 32.722600
O 1.340140 1.246950 32.763500
O 1.137820 3.012720 31.750100
O 1.008910 33.086800 1.225470
O 1.313990 33.014600 27.050000
O 1.538110 33.016600 28.021900
O 0.923386 33.039000 32.952700
O 33.192600 1.337910 4.134790
O 32.549200 1.302340 4.826850
O 32.804800 2.335250 32.541500
O 33.222600 2.303490 31.628800
O 32.867600 31.559100 3.982870
O 32.633300 32.776800 4.092510
O 33.239100 32.280900 3.523170
O 32.915200 33.105600 4.906630
O 32.838300 30.966500 26.346300
O 33.036800 31.164300 27.325700
O 33.133700 32.631100 26.803800
O 32.619500 31.904500 26.914500
N 5.605220 0.908844 1.939270
N 5.902080 1.774190 2.145110
N 3.354660 3.489700 0.709562
N 5.036140 1.580650 2.595060
N 4.403050 2.158530 4.047900
N 5.070240 1.638130 3.594390
N 3.198950 1.133380 4.793000
N 3.991620 1.653830 4.771610
N 4.987590 1.683720 31.182200
N 3.678650 5.035120 30.875000
N 3.449010 5.988710 30.988400
N 4.427860 2.128860 31.697500
N 4.815620 2.181210 32.578000
N 5.476220 1.588250 32.021400
N 5.651010 0.678696 32.278600
N 2.516290 3.840440 33.113600
N 3.976790 2.597960 32.551100
N 3.334530 2.525680 33.313800
N 3.539520 4.417620 31.588600
N 3.100280 5.208580 31.889800
N 2.578740 4.673970 32.616100
N 3.949910 6.843740 31.039800
N 4.734400 6.756440 30.413000
N 4.121760 27.872500 2.377150
N 4.976200 27.092300 1.099830
N 5.202160 26.132900 0.948816
N 4.780920 27.813900 1.695060
N 2.026290 23.920200 3.367620
N 2.119740 24.744700 3.803760
N 2.209960 24.587000 2.678440
N 1.860040 25.428500 2.917820
N 2.635990 26.040200 3.083140
N 2.437890 27.863600 3.077300
N 2.468300 26.968000 2.914630
N 1.894520 24.580600 18.308800
N 2.792330 26.611800 18.319700
N 3.447000 27.177600 18.670600
N 1.209010 24.114300 18.912900
N 1.580500 25.236300 18.984700
N 1.941650 25.736300 19.731800
N 2.069340 26.327800 18.906100
N 4.591990 26.105000 22.369900
N 5.296370 24.055500 23.107000
N 4.437310 25.530800 23.166400
N 6.034200 24.573100 22.710800
N 4.821700 24.814000 22.687100
N 2.322710 27.571900 23.670400
N 1.663940 27.480100 22.936500
N 0.694568 27.331400 23.004200
N 5.640980 24.308700 25.519000
N 4.913180 25.963700 25.262000
N 5.209000 25.016900 25.147700
N 1.096640 27.263000 25.613400
N 2.281270 27.444000 24.628100
N 3.919880 27.428600 25.725500
N 3.092870 27.858000 25.989500
N 4.299690 26.503900 25.786600
N 1.494620 25.824000 27.509900
N 1.419190 26.009700 26.257900
N 5.687600 25.915600 26.731700
N 1.778920 27.420000 27.275900
N 1.181350 26.717700 27.275900
N 1.726700 27.171500 26.240300
N 0.725263 26.803700 26.345000
N 2.167850 26.477700 26.664400
N 3.006650 27.418900 27.459500
N 4.993150 27.520300 26.793600
N 5.262300 26.702700 26.315200
N 1.367330 25.876300 28.486100
N 1.503230 25.617400 29.424000
N 1.185010 27.109900 28.342600
N 1.928100 27.700700 28.168800
N 1.578600 27.550400 29.099900
N 0.888450 26.991200 29.554900
N 3.408550 27.491900 28.313800
N 4.058540 27.664100 29.078200
N 4.633040 27.423400 28.305900
N 1.064440 25.790400 31.441800
N 1.116330 25.647200 30.307400
N 1.902170 27.623300 31.025900
N 1.423030 27.647000 30.135400
N 2.508920 26.288000 31.209500
N 4.993590 25.938300 32.736100
N 1.657350 26.523500 31.586800
N 3.957900 26.616600 32.037000
N 2.999750 26.506300 32.061400
N 4.325490 26.570900 32.920100
N 1.748520 28.106400 2.351850
N 0.834997 28.280100 2.383790
N 5.239770 29.168300 2.077630
N 5.599940 32.212900 1.616160
N 4.529400 28.764900 2.625400
N 5.622950 30.324100 2.592900
N 5.854460 30.136100 3.533990
N 2.688270 33.175100 4.261490
N 5.952720 32.075000 2.516460
N 1.941290 33.017700 4.798280
N 1.042640 29.888700 23.847200
N 1.030310 29.216400 24.511800
N 2.181570 28.006300 25.414700
N 1.375540 27.954900 24.855500
N 2.226730 29.086800 25.093000
N 1.464060 29.151500 25.661400
N 0.815156 28.180700 25.660000
N 3.938260 29.468300 25.351300
N 3.102610 28.861400 25.486000
N 5.604810 29.337400 26.012900
N 2.384030 30.698500 25.587300
N 0.890721 30.473300 24.576800
N 3.023490 29.779900 25.644700
N 3.639280 30.628000 25.571300
N 4.611140 29.981800 25.787500
N 2.289850 31.899500 25.129800
N 1.821920 32.034100 25.968000
N 3.060420 32.383200 24.841700
N 3.930870 32.312000 24.544200
N 4.209730 32.154000 25.436600
N 5.029370 32.425400 25.924200
N 0.868464 29.262000 27.672900
N 0.766861 29.011000 26.546800
N 3.172800 28.769100 27.202100
N 3.612520 29.055700 26.380800
N 4.081430 29.546900 27.158500
N 2.553030 27.919600 26.774100
N 4.614190 29.089600 26.199200
N 2.132890 30.132200 26.271000
N 1.528360 29.725000 26.860600
N 2.197070 30.330800 27.312400
N 1.456450 30.896000 27.201300
N 1.990130 31.155100 26.329200
N 2.205990 31.412600 27.520000
N 3.795130 30.263100 26.472700
N 2.969820 30.734000 26.641100
N 3.595540 31.054500 27.278500
N 5.064450 29.757700 26.713900
N 4.295840 30.422300 27.534100
N 5.484080 31.720300 26.395300
N 0.850801 29.510300 28.622900
N 2.356610 28.333000 28.882100
N 3.187350 29.183900 29.014900
N 3.562960 29.693600 29.696500
N 3.723030 28.519400 29.355500
N 2.720110 28.328000 28.036600
N 3.440570 29.201300 27.968900
N 3.736450 28.297300 27.915500
N 4.397740 28.886300 28.365000
N 1.012080 29.732500 29.504100
N 2.092800 30.630200 28.196400
N 1.458980 30.425300 28.858500
N 2.220670 30.846600 29.307300
N 1.460670 29.901200 27.957800
N 4.045570 29.764600 28.436000
N 2.965890 31.152600 28.051100
N 3.123980 31.303100 28.943300
N 4.865940 29.813700 29.221700
N 5.422340 30.515500 29.533500
N 2.194280 31.785800 29.441200
N 5.750510 31.638200 29.643200
N 2.183680 28.348000 29.832900
N 1.592450 29.212600 31.086800
N 2.182430 28.514500 30.863100
N 2.868110 28.990200 30.074500
N 3.089300 29.163100 30.977200
N 2.210790 30.089700 30.753200
N 2.394110 31.213600 31.244900
N 1.467560 30.403900 29.982200
N 1.201670 30.056500 30.929800
N 2.182240 30.995200 30.369500
N 3.110130 30.183200 30.500900
N 3.360010 30.783500 29.815600
N 6.073250 30.298000 30.371500
N 4.306480 30.324600 29.766300
N 4.739460 30.892500 31.495000
N 5.201460 31.025900 30.409200
N 4.947220 30.187600 30.864800
N 2.482700 32.587900 29.928100
N 5.376140 32.011900 30.763200
N 5.663760 32.835600 31.507600
N 5.264650 32.412600 29.933900
N 0.818799 28.812100 32.836300
N 0.714247 29.116500 31.954000
N 3.398780 29.403500 31.889600
N 4.261920 28.870600 31.839100
N 5.752880 29.019000 32.229100
N 3.662810 30.835000 32.996000
N 3.882630 30.519000 32.104900
N 4.859410 30.382400 32.432900
N 4.514860 29.797800 31.806200
N 5.475970 31.167600 32.076100
N 2.036340 32.009900 31.629100
N 3.387070 31.607400 32.634400
N 3.745130 32.244100 32.036500
N 2.799380 32.370300 32.032600
N 6.099380 31.672900 31.650700
N 9.226660 1.697870 23.540300
N 8.987460 2.465400 23.039500
N 9.177710 1.634110 22.518400
N 10.057900 2.070500 23.690100
N 7.801530 1.761220 26.013200
N 10.369100 1.827650 24.545800
N 10.415200 2.471170 25.299000
N 9.947990 3.297070 25.274500
N 10.455500 3.549240 26.041800
N 6.388770 0.744705 26.787300
N 7.094970 1.240900 26.461500
N 8.207250 0.696296 26.138000
N 9.947720 1.743730 27.843100
N 10.728800 1.262820 27.673800
N 10.859400 2.174880 27.261900
N 8.425910 2.476140 26.241900
N 9.002160 2.968300 27.782600
N 8.382590 3.122610 27.004700
N 8.063880 2.768010 27.829100
N 11.101400 2.950630 27.668500
N 10.623300 3.493550 26.988900
N 9.146530 2.110960 28.203300
N 7.913110 1.741140 30.085300
N 8.031130 0.798738 30.198700
N 8.912910 0.940386 30.007400
N 8.249080 1.522760 30.962700
N 10.305600 1.464850 30.519700
N 10.559800 1.525830 31.498900
N 8.358350 1.193800 31.833700
N 10.715100 1.019550 32.248500
N 7.409210 27.273200 1.038090
N 6.683960 23.913100 22.774100
N 7.407260 23.834500 23.474800
N 7.440750 24.587200 22.846400
N 7.591690 25.545400 22.923600
N 8.474580 25.490200 23.289400
N 7.823180 27.665300 22.722500
N 8.645600 26.332200 22.950700
N 8.182840 27.021600 23.351500
N 7.215120 25.063600 25.943300
N 6.713910 25.206000 24.979400
N 7.651060 25.106800 25.060900
N 6.143080 25.115000 25.734000
N 6.604280 25.616900 26.577000
N 7.522460 25.541400 26.740000
N 7.259810 27.177200 32.774800
N 8.463020 27.666600 31.658700
N 7.921940 27.754400 32.431100
N 9.217350 27.278700 32.129800
N 9.881090 27.871100 31.774600
N 7.120960 29.595100 1.677050
N 7.390920 29.128100 0.887719
N 6.352520 29.650400 2.290640
N 6.786920 28.016000 0.960348
N 7.052970 31.453900 0.884661
N 8.511340 29.823200 1.030930
N 9.320570 30.323800 0.779725
N 6.202120 32.928700 1.622630
N 8.034040 32.655700 0.787356
N 6.232240 31.294600 3.059480
N 6.625190 30.868900 3.849440
N 6.423640 30.016100 4.295280
N 7.552160 27.940800 23.600300
N 7.497080 28.102400 24.585600
N 6.959320 28.459500 25.285300
N 6.202930 28.583100 25.848500
N 6.339780 31.435900 26.068400
N 7.598320 30.928300 25.512800
N 7.786750 29.841600 25.895700
N 8.455830 30.469600 25.602000
N 8.364250 33.285100 25.205700
N 8.536140 32.394100 24.872100
N 9.397870 32.946300 24.656900
N 9.455800 32.182800 25.254500
N 10.256300 32.854300 24.981000
N 7.156990 29.615700 27.324000
N 7.928490 29.511700 26.801800
N 7.555670 30.516600 27.088100
N 7.188450 31.098800 26.359500
N 6.344930 33.116900 27.694500
N 9.097820 32.877200 26.886300
N 8.156160 32.630900 26.705500
N 8.679880 33.217700 27.684900
N 6.330540 30.896300 29.547200
N 6.537360 32.660200 29.328700
N 6.837890 33.081600 28.531000
N 6.893500 31.825000 29.056000
N 7.848910 31.861500 29.310000
N 7.671010 32.946600 29.280500
N 8.601930 32.839700 29.590000
N 8.050430 33.101500 28.396600
N 10.484600 28.385600 31.116800
N 10.608700 29.484300 30.317200
N 11.155300 28.759600 30.553800
N 7.687610 31.257000 30.160500
N 6.930520 30.685100 30.365900
N 6.818230 30.149800 31.286800
N 8.794130 31.091400 31.298900
N 10.888900 30.252300 30.885000
N 10.035400 30.617600 31.041600
N 6.240650 32.350500 30.910600
N 8.532020 31.628800 29.911800
N 10.091900 32.411900 30.736200
N 9.768070 31.568000 30.994300
N 9.909870 33.309300 30.630900
N 6.467970 29.409800 31.697900
N 6.623660 28.154300 32.721800
N 6.431100 29.105100 32.902700
N 8.012500 29.528500 32.965600
N 6.441180 31.078200 32.922000
N 7.456340 29.952300 32.083900
N 8.354370 30.551100 31.949800
N 9.278680 31.143600 32.095000
N 8.629740 30.258600 32.756800
N 10.158300 31.068100 32.551600
N 11.204300 31.365000 32.658400
N 6.892300 32.200700 31.747300
N 6.917720 31.815100 32.564200
N 8.761020 32.703700 32.917600
N 8.514320 32.944600 32.032000
N 7.924580 31.769600 33.333400
N 10.601300 31.738700 31.986600
N 11.469500 33.065200 32.073700
N 11.969000 0.872240 31.433100
N 13.380100 1.898990 31.066800
N 13.790100 1.510860 30.261000
N 14.692100 1.605870 30.617800
N 12.784700 1.272750 31.598600
N 33.281100 27.666500 1.459400
N 32.575700 25.638700 20.352800
N 33.324600 24.781300 19.261600
N 33.222500 24.940200 20.269300
N 32.551800 26.371600 20.900800
N 32.854600 27.114500 22.257300
N 32.888500 27.170200 21.293600
N 31.840400 24.096400 24.530100
N 32.422300 24.868500 24.546200
N 31.770800 25.911300 25.294100
N 32.071600 25.842900 24.387000
N 31.189600 26.308200 24.659100
N 31.648500 27.145000 24.659600
N 32.778600 27.376400 26.050500
N 30.990400 27.752600 27.408800
N 32.355700 27.658900 26.892200
N 31.059600 27.423700 28.291300
N 31.403900 26.648600 28.740800
N 32.328500 26.731000 28.941600
N 33.219900 26.396900 28.854500
N 32.983600 26.545400 27.977500
N 32.171800 27.076300 27.919700
N 33.019300 25.201000 30.467200
N 32.935400 25.388000 31.359100
N 29.626900 26.424800 31.383100
N 29.502500 26.118300 30.460600
N 29.687100 27.389400 31.511500
N 32.636500 27.153800 29.819200
N 33.243300 27.668600 30.549300
N 31.946100 27.884200 29.805500
N 32.617000 27.203700 31.094400
N 30.577900 27.202900 31.896100
N 30.854500 26.474900 32.506200
N 32.456100 27.229800 32.022600
N 31.543600 27.081000 32.215500
N 33.257500 28.612500 1.501190
N 29.487600 28.566500 24.061300
N 30.420400 28.752400 24.148900
N 29.366100 28.817100 24.955400
N 31.052600 28.059300 24.434400
N 30.272900 29.010600 25.259600
N 33.297000 29.305100 25.388100
N 31.997800 28.063000 24.432700
N 30.519800 28.008600 26.379400
N 31.378300 28.253300 26.714800
N 30.329200 28.945200 26.241200
N 32.082700 28.015300 27.725900
N 32.485600 29.237500 27.066700
N 33.028700 28.471700 27.204300
N 32.726600 28.513600 26.184900
N 30.723200 29.979800 26.301200
N 31.113600 29.793100 27.153400
N 30.926600 30.738000 27.177100
N 33.345800 30.160100 27.073500
N 31.362100 28.066300 29.079500
N 32.796000 28.765600 28.270100
N 33.048200 28.930200 29.322100
N 32.315600 28.251800 28.918000
N 31.406000 30.718200 27.989400
N 31.615600 29.761500 28.124700
N 32.567600 29.716100 27.900500
N 33.341900 30.408100 28.008400
N 32.637800 28.747000 30.153200
N 32.765300 29.706700 29.971000
N 32.713000 28.695400 31.337700
N 33.322700 29.224100 30.804500
N 33.226200 30.575100 30.064200
N 33.161500 27.988600 33.227000
O 1.476280 4.153530 2.062710
O 1.566360 5.732740 1.239940
O 1.545040 5.134190 2.002860
O 0.823365 4.203280 2.761420
O 1.112360 5.539110 3.934020
O 1.047690 4.441520 3.684750
O 1.616060 4.812910 4.321160
O 1.416830 5.083650 33.256900
O 30.912200 6.028210 3.435140
O 33.055600 6.027880 4.252100
O 31.647400 5.617330 3.000870
O 32.097700 5.544010 31.396900
O 33.340200 4.949350 32.727000
O 31.964300 5.123590 32.244800
O 32.434600 4.786690 33.029800
O 30.621400 6.408920 4.249860
O 32.922600 7.130760 4.140660
O 28.906400 8.792100 4.186260
O 31.266200 8.097960 3.638010
O 32.256100 8.067980 3.480510
O 29.112200 7.233680 4.978830
O 29.702800 6.780990 4.400880
O 32.735500 6.689710 4.934690
O 28.982800 9.461000 4.855500
O 29.258500 8.810310 5.538490
O 28.707000 8.109540 4.833290
O 30.150700 8.556950 5.299270
O 31.065500 8.505840 5.323220
O 30.733400 8.508090 4.407630
O 32.754100 8.032400 4.285130
O 5.404180 5.800200 2.448960
O 5.589890 4.948940 2.865040
O 6.004710 5.875770 3.255840
O 6.496900 6.008830 4.105240
O 7.226900 6.871550 4.068980
O 8.114870 8.008240 4.246890
O 8.605330 8.859150 3.931910
O 9.483600 9.335460 3.845950
O 9.698090 8.913100 3.061820
O 9.682950 11.459800 3.474680
O 11.175900 11.410200 2.857620
O 9.871560 10.739600 2.879730
O 10.052100 9.803370 3.005740
O 10.574400 11.108500 3.606890
O 7.295100 7.637180 4.613010
O 7.162530 6.228180 4.754510
O 12.471500 11.338300 1.914130
O 12.434300 10.395900 2.116630
O 12.947600 10.358800 1.341130
O 12.718600 11.176800 0.894121
O 12.498600 11.138400 2.844090
O 13.343900 11.958800 0.812735
O 15.172600 12.107100 1.781540
O 14.288300 11.732800 0.958841
O 16.005300 12.631900 1.990790
O 16.916600 12.836200 2.225260
O 15.208900 11.693900 0.882716
O 11.988500 11.895400 3.098920
O 17.239800 13.756600 2.420480
O 17.559700 13.498800 3.299580
O 3.699420 0.884433 5.677830
O 2.717790 31.415800 6.096950
O 3.462650 32.000400 6.012280
O 4.458180 33.103300 5.289900
O 5.101530 32.422300 5.477760
O 5.818950 31.749800 5.709560
O 0.856489 30.832100 7.749750
O 1.227470 31.038500 6.882710
O 1.818700 31.057800 6.103750
O 3.924450 32.810400 6.169070
O 1.056520 33.267900 8.787930
O 6.664260 31.409900 5.911340
O 7.091410 30.886200 6.639460
O 7.213110 30.040100 7.062330
O 30.876000 0.995422 9.477740
O 32.444900 0.794339 8.973800
O 32.150600 29.663000 7.665910
O 31.955800 29.564600 8.795790
O 31.330900 29.794400 9.447590
O 30.670500 30.763800 9.518080
O 30.749200 30.804600 8.555980
O 31.809500 30.374400 8.287760
O 32.783300 30.277500 7.943840
O 30.502100 33.263400 8.613980
O 31.500100 33.320800 8.849010
O 30.352100 32.489800 8.079060
O 30.782800 31.693700 8.094450
O 30.136100 33.045200 9.464950
O 33.188700 33.295400 9.589380
O 31.167600 30.386200 10.222600
O 4.953900 4.571180 5.300300
O 5.497700 5.286220 5.621990
O 6.005950 4.264210 6.233630
O 6.960430 1.558440 5.992620
O 7.571020 2.080850 5.399750
O 8.793080 3.251790 5.993690
O 8.429090 2.554120 5.444370
O 9.570110 2.206470 7.256780
O 9.055290 1.452590 6.966220
O 6.489730 2.716960 7.109840
O 6.202190 3.607720 6.913540
O 6.814150 2.487440 6.249190
O 9.537630 2.647140 6.146530
O 10.214200 2.721680 6.805330
O 6.127370 5.436840 6.269570
O 6.817400 4.787320 6.109580
O 7.556020 27.332400 7.379120
O 7.463870 27.891800 6.554580
O 8.525220 27.645600 6.966070
O 7.656310 28.277700 7.504570
O 8.368960 28.315600 6.359360
O 8.435450 31.995300 6.782450
O 7.950180 32.684700 7.211320
O 8.929150 32.296200 7.628680
O 8.691940 33.268400 7.161820
O 7.842350 28.893100 8.252700
O 7.996630 29.872300 8.448350
O 8.718800 30.378500 8.183210
O 8.085350 30.966600 8.569370
O 8.231200 31.785900 8.009640
O 1.152260 0.960853 6.536630
O 1.051060 1.302080 7.716340
O 2.904060 1.963560 7.762420
O 3.024670 1.171630 7.208270
O 2.799160 1.500070 8.658690
O 2.978910 1.908130 9.543180
O 1.121810 3.405920 9.122270
O 1.800270 3.564520 8.433060
O 1.022970 3.045550 8.139080
O 2.983190 2.838580 9.907310
O 2.950070 3.793270 10.093300
O 1.697120 5.051500 10.178300
O 2.543730 4.673410 9.915590
O 1.258360 33.110500 7.391490
O 2.001980 33.281500 6.693560
O 2.954800 33.114600 6.607290
O 33.030400 1.617180 7.197340
O 33.262000 2.443180 7.582190
O 33.039900 3.860820 9.569220
O 32.526600 4.691460 9.561180
O 31.390300 5.835120 10.220200
O 30.793500 5.457900 10.834700
O 32.193100 5.558710 9.743570
O 29.999200 6.002150 11.946400
O 30.926700 5.895550 11.651500
O 30.109200 5.910880 12.867800
O 30.063900 6.792170 13.321200
O 30.307500 7.468230 13.973100
O 31.151300 7.754100 14.343800
O 31.541700 7.007140 13.813400
O 5.291370 3.959850 7.386900
O 5.731320 5.701820 7.194580
O 4.497580 4.470580 7.335670
O 5.189740 5.110850 7.756310
O 5.456980 2.447760 7.991270
O 4.828480 3.290000 8.203640
O 4.367550 2.511380 8.521580
O 4.809680 2.986100 9.184110
O 5.719630 3.736700 8.191120
O 5.654740 2.747480 8.903230
O 3.921230 7.154970 5.246110
O 4.019830 7.717150 5.981310
O 4.827360 7.008240 5.401550
O 5.670680 7.484610 5.423690
O 5.786300 8.441920 5.272840
O 6.079170 8.999370 4.584130
O 5.493050 7.304080 7.832320
O 5.928040 6.442590 7.863810
O 4.097510 8.262700 7.444750
O 4.316920 8.380710 6.529510
O 4.810590 7.792890 8.270600
O 4.717430 8.727910 8.011720
O 6.842110 8.636870 5.005800
O 7.212830 9.412680 5.393730
O 7.371210 10.321500 5.367170
O 7.556870 11.134000 4.909380
O 7.609510 12.589900 3.857720
O 6.908150 12.935200 3.330920
O 6.924940 11.790000 5.123370
O 7.694800 12.246300 4.741210
O 5.575740 1.526410 9.731350
O 4.956320 1.768110 8.985260
O 4.589510 1.177390 9.658090
O 10.800700 3.319600 9.616800
O 6.294100 1.951160 10.214200
O 9.306880 2.198700 9.948310
O 8.199970 2.195370 10.664500
O 11.494800 2.431240 10.726400
O 10.265900 2.159230 10.438600
O 9.792950 1.359920 10.214900
O 6.905530 2.685650 9.959290
O 7.281040 2.496710 10.863100
O 8.516890 2.728480 9.980620
O 11.335500 3.424910 11.032200
O 10.413800 3.135220 10.520700
O 11.466300 2.604350 9.792580
O 11.461100 4.374260 11.156100
O 11.504300 6.000120 10.368000
O 11.339500 7.613420 8.906010
O 10.443900 7.364320 8.619700
O 10.154000 6.727510 9.337180
O 9.884950 7.024130 10.193600
O 10.660400 6.476470 10.432200
O 12.040400 2.857280 11.369100
O 12.058900 4.934930 10.672900
O 12.433700 5.836470 10.416400
O 11.933000 7.658030 8.203080
O 13.218200 7.003690 8.688360
O 12.343300 7.365700 9.035300
O 13.713700 6.545300 7.982580
C 4.313410 5.959480 9.470170
C 5.204930 5.922620 9.476670
C 4.193280 5.173000 11.239500
C 5.964840 4.595270 10.417000
C 5.834790 5.480510 10.130400
C 6.091220 5.272870 11.110300
C 4.519040 3.996600 12.721500
C 4.295170 4.476700 11.900200
C 4.755080 5.870150 11.626700
C 3.931860 3.742180 13.406300
C 4.595400 3.099350 13.556900
C 5.376110 2.758870 14.006900
C 5.923970 3.188070 14.603600
C 6.058210 2.597560 15.338400
C 3.316030 8.058310 9.467060
C 3.414460 11.105200 9.456300
C 3.314700 6.953900 10.584300
C 2.923100 7.804400 10.316500
C 3.605150 6.602920 9.737350
C 3.947640 7.560830 9.976420
C 5.740100 7.274710 10.614200
C 5.953480 7.855600 11.364200
C 3.944380 7.974810 10.807900
C 5.192910 9.615210 11.502600
C 5.632650 9.375960 9.854450
C 5.319650 8.991330 10.626700
C 4.552910 8.614240 11.165600
C 5.683470 7.984370 9.776120
C 3.470740 10.645700 11.240700
C 3.760270 10.786700 10.319000
C 5.327780 10.047600 10.668900
C 5.480540 10.815300 9.929020
C 6.043990 10.094800 11.510800
C 4.816270 7.659990 12.882800
C 5.819440 6.488490 12.740000
C 5.801710 7.422340 12.378500
C 4.932850 6.388540 12.499500
C 4.262810 9.043260 13.047900
C 6.004030 9.589410 12.345000
C 5.605930 8.070310 13.211800
C 5.148070 8.775690 12.684300
C 5.145990 8.242430 11.770100
C 4.144810 10.650500 13.247100
C 3.132720 11.240600 12.449200
C 2.697330 10.776000 11.767800
C 3.922400 11.538000 12.960300
C 5.754120 10.630900 12.699600
C 3.649980 8.749250 14.245000
C 2.777170 9.172120 14.458300
C 4.548000 9.063400 14.247000
C 5.797050 9.114680 13.395500
C 5.745860 8.514400 14.160000
C 3.455970 10.644300 13.876000
C 3.551700 9.757320 14.380300
C 5.617620 10.484900 13.633000
C 4.744530 9.752760 13.517800
C 5.171160 11.051700 14.275900
C 5.665050 10.653400 14.992200
C 2.467030 11.170300 16.779300
C 2.543830 12.803600 5.511380
C 0.887958 14.185800 7.045900
C 1.847210 14.369800 7.321880
C 1.407290 14.814200 6.568760
C 2.823020 15.071800 7.615250
C 2.649100 13.458800 6.243200
C 2.656750 14.177100 6.919320
C 2.390940 15.332600 6.739920
C 1.975600 13.170900 8.552940
C 2.755170 12.760400 9.469060
C 3.080930 11.940800 9.180860
C 5.145540 13.334300 9.639830
C 6.052140 12.920000 9.618510
C 1.456790 13.986200 8.539470
C 2.053630 13.639300 9.472230
C 0.777892 14.605000 8.308760
C 2.273430 14.513200 9.075080
C 3.070470 14.537300 8.441720
C 3.859240 14.423500 7.983850
C 2.853520 13.447700 8.843680
C 5.936550 14.561200 8.287320
C 4.578420 14.120500 8.585310
C 5.295340 13.474900 8.699940
C 2.011210 15.641100 9.421020
C 2.915460 15.186500 9.292820
C 5.760480 15.897200 8.031100
C 5.652490 15.345000 8.806410
C 5.564850 11.642900 10.476600
C 4.605510 13.174100 11.424100
C 5.520970 13.303400 11.121600
C 1.487520 13.374700 10.165100
C 5.934420 13.658400 10.285300
C 1.904930 15.475000 10.884200
C 1.140490 15.709200 9.832140
C 1.168410 15.321700 11.476400
C 0.785383 15.813100 10.724800
C 4.159200 16.647700 11.176200
C 2.696380 15.924800 11.342700
C 3.581490 15.839400 11.013000
C 2.267250 12.931300 12.262900
C 0.806341 11.617800 12.305200
C 1.504440 12.802800 11.602100
C 2.733330 13.331200 13.259400
C 5.417540 12.635800 12.995100
C 5.175680 13.137000 12.241300
C 2.715850 13.773600 12.426000
C 3.509110 14.303300 13.236700
C 1.108050 16.526100 13.024400
C 3.068260 16.901600 12.202800
C 2.789810 16.999200 13.134200
C 2.928730 13.362400 14.706100
C 3.469500 12.583700 14.869700
C 4.804240 12.046900 13.532400
C 5.579950 12.226200 14.064800
C 1.585210 14.776600 14.428300
C 0.829832 15.121300 13.998100
C 3.611820 13.436300 13.653800
C 2.539040 14.471200 14.921000
C 3.256420 15.109900 13.713800
C 2.004200 15.378900 13.796600
C 1.954220 16.517200 13.690000
C 2.367210 16.004000 14.394000
C 3.410020 15.454300 14.591900
C 3.927370 16.817300 14.570200
C 1.987520 12.809600 16.788600
C 2.982700 12.877000 15.693800
C 2.533660 12.021000 16.347800
C 2.920610 12.687400 16.947300
C 5.984830 13.221000 15.917500
C 1.786550 14.300200 15.461200
C 2.268690 13.456900 15.476100
C 1.792640 14.973100 16.491100
C 3.112300 14.131300 15.589700
C 3.264350 14.863900 16.395800
C 3.363270 14.999400 15.436100
C 5.828260 14.685100 16.751100
C 5.721530 14.132400 15.792800
C 5.358680 15.050100 15.826400
C 1.568700 16.848300 16.098600
C 2.106990 16.068000 16.827700
C 1.065600 16.321000 15.390800
C 1.459810 15.804900 16.068800
C 3.138580 16.016400 15.336700
C 4.132130 15.311800 16.200500
C 3.814620 16.428400 15.812000
C 5.954880 16.880000 16.923000
C 5.885930 15.687400 15.312000
C 5.637670 16.654800 15.210900
C 6.070470 15.614500 16.934300
C 4.375360 16.174800 16.808500
C 2.197210 13.214600 17.651000
C 1.999180 13.474700 18.556700
C 3.436080 15.600000 18.414300
C 3.654840 16.215800 17.716200
C 2.785210 16.538700 17.584700
C 2.534450 15.242000 17.020800
C 3.941640 15.394100 17.136700
C 5.123150 16.545600 17.325500
C 1.923510 14.372200 18.874000
C 3.621770 14.301100 19.456200
C 3.986860 15.049200 18.958100
C 2.597950 14.284300 19.589500
C 2.434470 17.946000 7.841660
C 2.418220 17.878400 8.793420
C 2.666090 17.395400 9.544450
C 3.308460 18.067600 9.308340
C 4.252500 18.325200 9.415720
C 3.873980 19.227800 9.431940
C 3.570020 20.107300 9.687510
C 1.936670 20.770400 9.369820
C 1.838870 18.316900 10.796800
C 1.046310 17.878800 11.092700
C 1.679450 19.009500 10.137100
C 1.014790 19.645400 10.427400
C 1.821370 20.111100 10.421900
C 1.092510 20.462300 9.847140
C 3.180590 20.140600 11.416100
C 3.222650 20.429400 10.523100
C 5.537040 20.994800 11.074100
C 1.599320 17.403100 12.953300
C 1.698900 18.434100 13.293700
C 1.350510 17.342900 11.889400
C 1.050860 18.077200 12.403400
C 3.602280 17.316400 11.555100
C 4.481890 18.757900 13.302000
C 1.816900 19.375100 13.306800
C 3.469640 20.244700 12.348500
C 2.556710 19.999700 13.269100
C 3.687340 19.608500 13.013100
C 4.663880 19.654800 13.018500
C 5.359830 21.698600 11.791200
C 2.019130 17.521100 13.764000
C 0.876040 18.082200 14.882600
C 3.696280 18.647800 13.894600
C 2.988750 17.982200 14.662400
C 3.071810 17.701700 13.740000
C 2.569690 18.680100 14.230900
C 4.077730 17.725500 14.840300
C 0.816602 18.829000 13.385200
C 1.524500 19.824000 14.167400
C 2.426750 20.604100 14.103300
C 1.321630 19.931100 15.097700
C 2.246510 20.348300 15.059100
C 0.810372 19.078000 14.962600
C 4.265700 18.901000 14.752700
C 2.949230 19.533300 13.987100
C 3.132940 20.015800 14.951600
C 4.029670 19.494700 14.076900
C 3.311540 19.048700 14.810700
C 4.499290 19.930600 15.001900
C 0.817773 20.711600 13.662600
C 1.163830 20.717800 14.624000
C 2.575280 22.030600 14.035900
C 2.964440 21.261900 14.503100
C 0.693756 17.286900 16.258000
C 1.974670 17.832500 16.271800
C 1.349020 17.618500 15.641300
C 1.288660 18.569200 16.725400
C 1.596560 18.750100 15.729500
C 2.357190 18.643500 16.577400
C 2.241890 17.044700 16.869800
C 4.210320 17.470300 15.866800
C 3.385690 17.081800 15.290500
C 3.574590 18.229500 15.453400
C 4.486650 18.357400 15.593500
C 4.483660 18.680500 16.505100
C 4.765020 17.368500 16.622900
C 1.517930 19.688100 16.915500
C 1.833650 19.634400 15.991100
C 3.435810 20.148300 16.181400
C 3.907200 19.487400 15.643800
C 4.300080 20.623200 15.683000
C 0.982919 21.807300 16.714800
C 2.638460 21.862500 16.800800
C 0.889927 17.563200 17.993700
C 1.763510 17.256600 17.767700
C 1.414240 18.374200 17.982900
C 1.240080 17.533400 17.013200
C 3.726730 18.238400 17.877000
C 3.015900 18.735300 17.482500
C 3.177630 17.408300 17.799800
C 2.562420 17.906400 17.081800
C 4.908210 18.160500 17.209400
C 2.152340 19.114700 17.557000
C 1.046980 19.184200 17.618000
C 2.488110 19.418500 18.409800
C 4.164460 19.116100 17.357700
C 3.519930 19.733400 17.033500
C 1.802000 21.803500 17.213800
C 4.038170 21.657900 18.155100
C 3.301850 21.828400 17.467600
C 5.784540 17.178400 20.254200
C 3.611640 20.305700 19.239000
C 2.862440 19.711400 19.258200
C 4.036520 21.066200 18.845300
C 3.384780 18.432400 21.978800
C 4.254370 17.626900 22.317400
C 3.558620 17.316700 21.794700
C 3.650240 18.003000 21.140800
C 5.498240 17.253500 21.205100
C 5.221150 17.454100 22.074100
C 5.817830 18.184100 23.582400
C 6.042110 17.239900 23.801900
C 5.028010 19.200100 23.501700
C 5.963390 19.180800 23.646000
C 5.342200 20.021400 23.055200
C 3.966930 22.660000 12.148100
C 3.358820 22.544200 12.857200
C 4.906320 22.542900 12.058100
C 2.995990 22.819800 13.711300
C 0.702327 22.478000 16.123200
C 8.648450 5.474890 6.057540
C 8.155250 6.046350 5.434200
C 7.155180 5.063610 7.184530
C 7.942040 5.346250 7.683480
C 7.929690 5.040530 6.585940
C 8.680320 4.821710 8.107500
C 8.984970 5.026150 9.011220
C 7.813570 5.873160 11.376000
C 7.794230 4.712720 11.220200
C 6.972240 5.480530 11.207000
C 9.219450 4.910590 9.961300
C 8.344640 4.820160 10.423300
C 7.644260 5.163780 12.037500
C 7.789000 0.707228 16.598600
C 7.269240 1.369400 16.167700
C 6.740060 1.910030 15.474500
C 9.212120 1.338120 15.974200
C 9.176450 2.142780 15.493100
C 9.251610 2.421240 16.418200
C 10.056600 2.809150 16.740600
C 10.233500 3.419900 17.406300
C 10.916300 2.927130 17.952800
C 8.103820 6.773530 4.814060
C 8.466950 7.216830 5.590520
C 10.297500 11.448900 5.282910
C 10.652800 10.639200 5.778920
C 10.559500 9.785960 7.345290
C 10.940000 10.066600 6.535630
C 11.476700 9.868850 7.504940
C 7.189960 9.616600 9.132020
C 6.286000 8.683450 9.448870
C 6.938600 11.058900 9.635090
C 7.761610 10.545100 9.354890
C 8.689110 10.612700 9.584470
C 7.846690 7.877560 10.983300
C 6.131530 8.414110 10.506200
C 7.020200 9.076480 9.940610
C 7.008480 8.680300 10.909400
C 7.728870 9.251000 10.701900
C 7.836920 8.477490 10.160500
C 9.529430 8.967390 11.546600
C 8.544120 8.500860 11.083800
C 8.816850 9.055150 10.365300
C 10.179700 8.427400 11.074800
C 10.873200 9.208320 10.306900
C 11.082100 8.331910 10.588200
C 6.151430 10.566300 10.588600
C 7.870430 9.746970 9.808940
C 7.785830 11.366500 11.337700
C 6.893340 10.745200 11.288200
C 6.879160 11.307800 10.538200
C 6.160530 11.452400 11.375100
C 8.927830 11.376900 10.014100
C 8.625480 9.925060 10.708800
C 9.239600 10.085100 11.395900
C 9.660320 10.596400 10.447900
C 10.150400 10.694700 11.228500
C 10.562100 10.288900 10.355100
C 10.265100 9.760800 11.498200
C 11.004200 11.178200 10.492000
C 6.709840 7.620830 12.689200
C 7.969610 7.365510 12.834900
C 8.190590 7.825490 12.021700
C 8.936030 7.835600 12.641900
C 7.424550 8.257230 12.643200
C 6.525710 9.643720 13.129900
C 6.901160 8.228490 11.739200
C 7.656880 8.798250 11.664600
C 8.295510 8.856740 12.412600
C 9.009470 9.022780 13.301600
C 8.230730 8.404570 13.240800
C 9.199740 9.517210 12.328200
C 8.562510 9.418020 11.646400
C 10.023400 9.702350 12.908200
C 7.326810 10.305400 13.192300
C 6.679450 10.273000 12.227700
C 6.656630 10.944000 13.110000
C 6.676340 11.525900 12.183000
C 8.343270 10.958400 13.055200
C 8.323250 11.511400 12.167200