1425
Atoms. Timestep: 0
H 0.969419 27.771600 26.678900
H 0.919642 27.748700 26.693000
H 2.080590 28.967500 27.257700
H 1.677490 28.592400 27.192700
H 1.636230 28.333300 26.227800
H 1.700590 28.362400 26.245200
H 2.437850 29.084000 26.331100
H 2.374930 29.056800 26.279700
H 2.328280 29.288300 27.496200
H 1.346380 28.311300 27.431600
H 1.067970 28.155500 27.854200
H 2.937810 29.725200 26.834800
H 2.983660 29.743200 26.913500
H 3.191770 30.163300 27.836500
H 3.174050 30.159400 27.744300
H 1.718760 28.851400 28.157700
H 1.723340 28.850900 28.184400
H 0.989122 28.194700 28.358300
H 2.369550 29.547300 28.461200
H 2.100300 29.390500 28.937100
H 1.109230 28.414500 28.819200
H 2.457550 29.507100 28.010500
H 1.366080 28.734300 29.111100
H 1.760020 29.110400 29.122600
H 3.006410 30.231700 28.852800
H 3.020340 30.243200 28.764700
H 2.517870 29.954100 29.622400
H 2.477260 29.930200 29.689900
H 1.062580 28.646000 30.035700
H 1.008820 28.617700 30.037700
H 1.746090 29.339400 30.123600
H 1.801280 29.369500 30.087600
H 5.852190 30.709400 31.277700
H 6.025010 30.277000 32.202300
H 7.504690 30.354700 0.847337
H 8.415080 30.844100 0.906052
H 6.897570 31.367500 31.178000
H 6.157730 31.328600 30.506400
H 7.770140 32.458000 30.153700
H 6.859750 31.968600 30.094900
H 7.703780 31.932200 31.001600
H 8.644970 32.665500 30.666800
H 9.249820 32.535700 31.496900
H 6.831210 30.841700 32.026000
H 7.571050 30.880500 32.697600
H 7.637410 31.406400 31.849600
H 6.629860 30.147200 33.032400
H 8.377260 31.445200 32.521200
H 9.117100 31.484100 33.192800
H 9.422630 32.103300 32.421500
H 8.443620 31.971000 31.673200
H 33.138500 27.470100 27.516000
H 33.115400 27.459600 27.550700
H 32.953100 27.538500 28.532200
H 32.961700 27.543400 28.571000
H 33.161200 27.958600 29.455200
H 33.197900 27.977600 29.480600
H 6.054000 8.923550 11.433100
H 6.012750 8.954260 11.401000
H 6.093690 8.561150 12.355300
H 5.740390 11.522700 13.292100
H 5.560440 11.908000 12.348200
H 5.840790 12.518800 11.560800
H 1.018160 16.882300 14.015400
H 1.278790 15.989400 14.469800
H 1.309690 15.986900 14.469100
H 1.825820 15.470700 15.179300
H 1.039740 16.874300 14.009400
H 1.855180 15.479200 15.187700
H 2.086720 16.428400 15.300600
H 2.096600 16.441700 15.311500
H 2.751460 16.680300 16.003900
H 3.558370 16.904600 16.939000
H 3.581500 16.861900 16.906000
H 2.745730 16.706600 16.024500
H 3.155290 15.974500 16.585900
H 2.530050 15.487400 15.972700
H 3.153460 16.009100 16.613700
H 2.512660 15.465200 15.953900
H 1.688880 17.139200 14.722300
H 1.943800 18.091800 14.840000
H 1.930290 18.101700 14.846100
H 1.682900 17.134200 14.718700
H 1.113760 17.910200 13.937800
H 1.117660 17.903700 13.931700
H 1.522570 18.799200 14.256900
H 1.539970 18.797600 14.258000
H 2.145980 19.320900 14.897900
H 2.182600 19.306900 14.890000
H 2.347630 17.386000 15.421900
H 2.338010 17.404100 15.435300
H 2.579430 18.366600 15.559100
H 3.012360 17.637900 16.125200
H 2.987150 17.669100 16.148300
H 3.677100 17.889800 16.828500
H 3.636290 17.934000 16.861300
H 2.608540 18.343700 15.543200
H 3.416470 18.782700 16.374100
H 2.869440 19.301400 15.664500
H 2.820840 19.329100 15.682900
H 3.366330 18.821400 16.401600
H 7.060280 9.646790 11.422300
H 6.404520 9.535920 10.675600
H 6.381800 9.559170 10.646300
H 7.036960 9.651940 11.396000
H 7.836170 10.243700 11.291200
H 7.843880 10.258300 11.312900
H 7.106460 10.207700 10.318200
H 7.101940 10.213800 10.293300
H 8.781310 11.004300 11.038100
H 8.768490 11.041800 11.054200
H 7.971730 10.758900 10.456800
H 7.980230 10.742700 10.436700
H 6.932430 9.146160 12.278500
H 6.892910 9.152930 12.250500
H 7.548060 9.245700 13.000200
H 7.588180 9.257030 13.025200
H 6.663580 8.473490 13.283900
H 6.602930 8.485180 13.253400
H 6.148820 8.534670 12.387800
H 7.692120 9.744710 12.145700
H 7.716030 9.757660 12.169100
H 8.371790 9.868520 12.915800
H 9.378060 10.591800 12.905000
H 8.499640 10.369100 12.059700
H 8.347280 9.837490 12.895400
H 9.371490 10.535200 12.890400
H 8.491330 10.336500 12.041000
H 9.290550 10.928300 11.936200
H 9.283240 10.980600 11.950300
H 7.460330 8.756400 13.881300
H 7.404010 8.746690 13.854700
H 8.282290 9.275630 13.998100
H 8.325610 9.307600 14.019900
H 6.332400 11.466100 14.139500
H 9.002440 9.930260 13.645200
H 9.027540 9.979390 13.662500
H 6.506300 13.191400 11.140700
H 7.378650 13.745600 11.200700
H 7.278250 12.749500 12.932000
H 6.509320 12.136100 13.112000
H 6.559520 12.634100 12.246400
H 7.328450 13.247500 12.066300
H 8.047190 13.362900 12.751900
H 8.816120 13.976300 12.571900
H 8.224110 14.032900 11.724500
H 7.228050 12.251400 13.797600
H 7.177850 11.753400 14.663300
H 7.996990 12.864800 13.617600
H 8.050210 12.307600 14.723200
H 8.715720 12.980200 14.303200
H 8.996060 13.591000 13.515700
H 11.539400 13.132500 16.916300
H 10.806500 13.079900 15.917900
H 10.814600 13.064200 15.907200
H 10.851500 13.074700 15.887100
H 11.514300 13.121900 16.928400
H 11.513500 13.135400 16.934100
H 9.675050 14.392400 16.875200
H 9.701860 14.404300 16.841100
H 9.668330 14.397800 16.901400
H 10.702800 13.719300 16.974300
H 10.705900 13.709700 16.959500
H 10.731100 13.720900 16.937600
H 10.076100 13.735100 16.183200
H 10.067000 13.746000 16.202900
H 10.110300 13.746300 16.154100
H 9.719020 14.860000 17.797800
H 9.717170 14.860700 17.826100
H 9.735520 14.872400 17.763800
H 11.164600 14.258600 18.526000
H 10.527400 14.272200 17.766700
H 10.543700 14.284000 17.742500
H 10.527900 14.276700 17.785900
H 11.352000 13.695500 17.721100
H 11.338600 13.692700 17.745700
H 11.335800 13.684400 17.735700
H 11.163700 14.250100 18.557300
H 11.157300 14.246900 18.543000
H 10.202300 15.025100 18.675100
H 10.200500 15.010700 18.729200
H 10.196200 15.012600 18.703700
H 10.988700 14.807500 19.368800
H 10.978700 14.809300 19.350300
H 10.977100 14.821600 19.330800
H 11.276100 20.388600 14.571200
H 11.280900 20.423700 14.567600
H 11.369400 20.958000 13.711700
H 11.397600 21.009600 13.722100
H 11.726800 12.569400 16.111400
H 12.476700 12.374800 16.762100
H 12.501600 12.365900 16.767100
H 12.475300 12.356200 16.767700
H 11.688500 12.578000 16.122500
H 11.692800 12.559500 16.121200
H 12.160200 13.107100 17.699800
H 12.144100 13.096600 17.704700
H 12.149300 13.108700 17.705500
H 12.952500 12.508800 17.673700
H 12.960000 12.524700 17.665300
H 12.968400 12.518700 17.678400
H 13.002100 12.986700 18.601200
H 12.996500 12.976400 18.596200
H 13.008900 12.987600 18.589900
H 11.974400 13.666100 18.517000
H 11.965600 13.659100 18.512000
H 11.972800 13.670100 18.504600
H 13.810600 16.705700 17.967000
H 13.877800 16.651000 17.979700
H 13.888100 16.700000 17.970300
H 14.602000 16.316000 18.508700
H 14.667500 16.312800 18.530800
H 14.666100 16.279400 18.538500
H 12.593600 13.644700 19.288100
H 12.610200 13.639500 19.288400
H 12.595500 13.633800 19.288200
H 11.852400 14.316300 19.555200
H 11.870700 14.305600 19.573500
H 11.856900 14.304600 19.564200
H 14.413800 16.921800 20.132200
H 14.131300 16.858000 19.175100
H 14.340400 16.815400 19.612300
H 14.133800 16.833500 19.178500
H 14.426700 16.917300 20.130900
H 15.169000 16.204700 19.440300
H 15.159700 16.217700 19.436700
H 15.115600 16.219600 19.402400
H 15.252000 16.446900 20.443400
H 15.213700 16.442600 20.408600
H 15.232600 16.440400 20.445100
H 14.866700 16.921000 21.285800
H 14.870200 16.925100 21.257600
H 14.892700 16.941300 21.279000
H 12.902400 21.739800 12.692700
H 12.960800 21.768700 12.732200
H 12.012400 21.501800 13.050300
H 11.964700 21.452600 13.024100
H 13.931400 21.742600 12.806300
H 13.988500 21.738500 12.853100
H 14.775900 21.460300 13.334400
H 12.269000 20.542100 14.469000
H 12.476300 20.287700 14.862800
H 12.891200 20.121300 15.129000
H 14.179600 20.538900 14.674200
H 13.879300 20.239700 15.030400
H 15.116300 20.399100 14.995000
H 15.116400 20.311200 15.018700
H 12.306100 20.818300 14.032500
H 13.242900 20.678600 14.353300
H 13.257000 20.660400 14.370400
H 12.634700 21.081100 13.710300
H 13.072700 21.209200 13.523000
H 14.820200 21.419500 13.380500
H 14.245000 20.778700 14.271800
H 13.622700 21.199400 13.611700
H 14.009400 21.069400 13.843800
H 15.209600 20.968600 14.135500
H 15.233000 20.897000 14.173200
H 11.693800 19.901300 15.360300
H 12.525500 19.582300 15.887700
H 12.554300 19.614600 15.900400
H 11.709800 19.896800 15.372300
H 13.413100 20.148000 15.183600
H 14.521000 19.904600 15.682600
H 14.501600 19.818900 15.690500
H 13.553200 19.552100 16.008600
H 13.583300 19.617400 16.014000
H 12.310200 17.834000 18.357900
H 12.260200 17.897300 18.386800
H 12.323500 17.885500 18.353100
H 12.953400 17.284500 17.922400
H 13.015500 17.220000 17.913600
H 13.030100 17.275600 17.905200
H 13.308500 17.303800 18.866000
H 13.312600 17.339400 18.862300
H 12.014800 18.602700 20.242000
H 11.916600 18.379800 19.235900
H 11.950900 18.328300 19.193500
H 11.957700 18.366100 19.193800
H 12.033900 18.570600 20.196600
H 12.030600 18.588700 20.202200
H 12.776400 17.884700 19.506600
H 12.776200 17.858000 19.506000
H 12.912700 17.654200 19.104500
H 12.790000 18.006900 20.032100
H 13.069100 17.941700 20.458400
H 13.058900 17.948500 20.463700
H 14.217700 17.168100 20.539900
H 13.601500 17.387600 19.818400
H 13.565200 17.411200 19.822200
H 13.595100 17.403200 19.819400
H 13.687900 17.058500 18.894600
H 12.522700 18.493700 21.108000
H 12.528400 18.506400 21.135700
H 12.536800 18.495900 21.098300
H 13.325100 18.124200 21.657100
H 13.319800 18.116600 21.677400
H 13.302200 18.106500 21.668600
H 14.176900 17.537800 21.722100
H 13.877600 17.467100 20.776500
H 13.442500 17.763900 20.749800
H 13.894400 17.471400 20.770800
H 14.160100 17.530900 21.733600
H 14.187400 17.555200 21.723200
H 1.381000 1.915330 14.192100
H 1.409660 1.853860 14.195200
H 2.233340 2.119720 14.763200
H 2.204380 2.189340 14.756600
H 1.078470 2.566370 14.813700
H 1.455890 2.757970 15.097700
H 1.953030 4.179340 16.750600
H 0.707391 3.326590 15.438800
H 0.747273 3.278870 15.432300
H 1.371860 3.700020 16.089900
H 1.621020 3.411530 15.836300
H 1.703050 2.987520 15.471300
H 0.872522 3.980160 16.177400
H 1.996450 4.121180 16.747500
H 2.658840 2.696170 15.510400
H 2.626640 2.768080 15.503900
H 2.534640 3.496470 16.233800
H 2.572130 3.428760 16.236700
H 1.086060 4.587900 16.905800
H 1.037650 4.633720 16.916000
H 1.876010 1.266630 19.004200
H 1.036730 1.756090 19.359800
H 1.017400 1.755730 19.312900
H 1.772870 2.141490 19.916100
H 1.893080 1.264480 19.048800
H 2.177400 1.886020 19.729000
H 3.827220 1.337130 19.552400
H 2.711740 1.819010 19.795900
H 3.804430 1.326340 19.530800
H 3.141610 1.915870 19.992400
H 2.896140 1.109460 19.083900
H 2.914470 1.111130 19.119300
H 3.447890 2.204410 20.352200
H 4.386750 1.881930 20.231900
H 4.357520 1.859140 20.225000
H 1.514580 2.475550 20.190600
H 1.570150 2.849380 20.592700
H 2.478790 2.505400 20.453900
H 2.509020 2.526890 20.472400
H 2.103570 3.942660 21.825500
H 2.061440 3.901350 21.823900
H 1.190820 3.716660 21.392500
H 1.153140 3.684470 21.377100
H 1.815970 3.094940 20.915500
H 2.306290 3.234780 21.149000
H 3.443000 2.535260 20.717200
H 3.081560 3.744180 21.903700
H 3.124950 3.789310 21.896000
H 3.245160 2.912300 21.028700
H 2.780180 3.124790 21.178800
H 3.940180 3.255080 21.595000
H 3.981300 3.297700 21.585100
H 4.407210 2.565110 20.980600
H 4.443150 2.599550 20.976000
H 1.375000 1.135530 22.828100
H 0.977219 2.003330 23.618400
H 2.104640 1.552880 23.369800
H 2.322230 0.840821 22.702300
H 1.887050 2.264930 24.037300
H 3.051860 1.258170 23.243900
H 2.913490 2.144950 24.098500
H 3.781500 1.675520 23.785600
H 4.258500 0.982434 23.182400
H 1.592590 33.121700 22.160600
H 0.862956 32.704300 21.619000
H 1.730970 32.234900 21.306100
H 2.539820 32.827000 22.034800
H 3.667240 32.376500 21.786200
H 2.757410 32.114900 21.367300
H 3.269450 33.244300 22.576400
H 4.216680 32.949600 22.450600
H 16.202200 5.821860 21.847700
H 16.240500 5.913150 21.799800
H 16.339400 5.259520 22.596500
H 16.409000 5.092470 23.615800
H 16.348800 5.029620 23.678100
H 16.278700 5.179950 22.656300
H 16.301700 6.022060 23.565200
H 16.393700 5.411130 24.639500
H 16.430700 5.456770 24.584600
H 16.139700 6.783330 21.469000
H 16.139000 6.878220 21.439200
H 16.108000 7.806750 21.621800
H 16.062000 7.896140 21.611300
H 16.184700 6.976840 22.433200
H 16.030000 8.694170 22.270000
H 16.115600 8.617890 22.265000
H 16.230400 7.075470 23.427300
H 16.254700 7.014510 23.452200
H 16.330600 6.266120 24.005900
H 16.284900 6.167490 23.011900
H 16.280900 7.610840 24.254500
H 16.130200 7.884820 22.848600
H 16.181300 7.410630 22.537000
H 16.228400 6.418190 22.649900
H 16.051800 9.058460 23.238700
H 16.207600 8.006960 23.339200
H 16.121400 8.891420 24.258000
H 16.175900 7.983440 23.842700
H 16.230600 8.849070 24.248200
H 16.160500 8.999400 23.226300
H 16.328000 6.618390 24.367400
H 16.276100 7.174090 24.421300
H 16.398800 6.254800 25.243300
H 16.369600 7.245690 25.435400
H 16.321800 7.272720 25.415400
H 16.401300 6.222270 25.282700
H 16.220200 8.237790 25.054700
H 16.307100 8.207160 25.056700
H 20.468400 5.897210 3.825370
H 20.426800 5.910480 3.789210
H 20.841600 5.699260 4.713880
H 21.189900 6.019740 5.634600
H 21.218500 5.995870 5.676650
H 20.877600 5.680780 4.751350
H 18.989500 5.670190 22.371500
H 18.891400 5.683600 21.341000
H 20.100600 6.587160 3.146830
H 19.830100 7.574370 2.853730
H 19.872700 7.565770 2.897540
H 20.211600 7.629010 3.776430
H 20.247800 7.615100 3.823190
H 20.056500 6.596820 3.108350
H 20.510000 6.797060 4.244170
H 19.845900 8.570810 3.144310
H 19.808100 8.581200 3.093580
H 19.996500 9.347530 3.763640
H 20.027200 9.332980 3.821010
H 20.294800 8.515580 4.231380
H 20.545600 6.780820 4.287100
H 20.593200 7.683640 4.699120
H 20.622900 7.664430 4.748830
H 20.920700 6.830150 5.212740
H 20.974700 7.738270 5.621820
H 20.997900 7.713760 5.674470
H 20.891500 6.851690 5.166860
H 20.368200 9.648070 4.746310
H 20.344700 9.668020 4.684360
H 20.325100 8.498710 4.284920
H 20.700100 8.548030 5.210560
H 20.676400 8.570220 5.154080
H 20.777400 9.431640 5.672290
H 20.759600 9.456790 5.609030
H 21.399900 6.758040 6.353350
H 21.378200 6.786070 6.304660
H 21.356200 7.792900 6.544520
H 21.373000 7.763080 6.600110
H 21.145200 8.741690 6.350830
H 21.129800 8.770450 6.289900
H 18.680800 7.113770 19.959000
H 18.778400 6.211990 20.458000
H 18.625400 9.035710 20.509300
H 18.624800 8.147330 19.977800
H 18.807200 6.908760 21.174600
H 18.730400 7.876430 20.934500
H 18.912800 6.637860 22.131400
H 18.836000 7.605530 21.891300
H 18.682500 9.540870 21.411100
H 18.759200 8.573200 21.651200
H 18.780600 9.527470 22.441600
H 19.047100 7.063740 23.804800
H 18.941600 7.334640 22.848100
H 19.046600 6.175360 23.273300
H 18.864800 8.302310 22.607900
H 18.991200 8.097300 23.823600
H 18.893600 8.999080 23.324600
H 22.193800 9.380170 26.432300
H 22.191900 9.354540 26.403000
H 22.113900 11.161000 27.339000
H 22.094300 11.120700 27.336300
H 21.891200 10.237500 26.927400
H 21.880100 10.202900 26.907800
H 27.344900 3.056060 23.945100
H 27.339400 3.019720 23.962700
H 27.335500 3.081010 23.960200
H 27.575200 3.746900 23.204600
H 27.564900 3.687290 23.204300
H 27.595000 3.716770 23.188400
H 27.502200 2.185640 24.452400
H 27.504700 2.164160 24.445800
H 27.523900 2.129420 24.457700
H 23.174600 7.654340 1.283790
H 23.165100 7.614520 1.309330
H 23.132000 7.643560 1.302190
H 23.518000 6.853290 1.842450
H 23.510100 6.827450 1.886570
H 23.482100 6.844420 1.859450
H 23.428200 8.043000 2.169760
H 23.452200 8.049530 2.159410
H 23.445500 8.031180 2.174030
H 22.979900 8.667170 1.194380
H 22.940700 8.656760 1.209860
H 22.970300 8.624870 1.195490
H 23.341800 9.027480 2.322270
H 23.351900 9.017820 2.307140
H 23.357900 9.032550 2.316600
H 22.986100 9.620390 1.598170
H 22.978000 9.587790 1.575540
H 22.959300 9.612530 1.607200
H 23.191600 10.258600 2.386960
H 23.182900 10.254800 2.387740
H 23.186000 10.245300 2.347660
H 23.897100 6.473470 2.732330
H 23.810700 7.457950 2.884830
H 23.824000 7.461690 2.877840
H 23.819400 7.461210 2.905630
H 23.913000 6.474570 2.772530
H 23.918200 6.478670 2.720660
H 24.265700 6.650430 3.729820
H 24.265800 6.630100 3.686930
H 24.099800 7.877870 3.770340
H 24.106800 7.857390 3.752400
H 24.101500 7.856880 3.753460
H 24.267900 6.630840 3.683100
H 23.729700 8.444720 3.035030
H 23.725800 8.447850 3.038740
H 23.724300 8.442440 3.037340
H 24.006200 8.864510 3.903450
H 24.020500 8.841870 3.904910
H 24.007300 8.839910 3.910650
H 23.637900 9.426920 3.189840
H 23.635500 9.427740 3.192220
H 23.632300 9.434480 3.171850
H 23.538700 10.421100 3.304950
H 23.541300 10.410800 3.349410
H 23.551500 10.411400 3.342340
H 23.941400 10.036100 4.227610
H 23.966500 10.040400 4.215220
H 23.941500 10.068200 4.190920
H 24.473700 7.307900 4.501940
H 24.489400 7.272340 4.467470
H 24.473300 7.269050 4.471900
H 24.286500 9.281180 4.768150
H 24.284900 9.235100 4.786270
H 24.316600 9.241310 4.772480
H 24.479600 8.222270 4.875680
H 24.508000 8.228110 4.864810
H 24.481300 8.270820 4.881990
H 22.946000 8.802800 25.957400
H 22.940500 8.818670 25.986300
H 23.931200 8.703480 25.708900
H 23.940400 8.695550 25.690200
H 24.908700 9.061520 25.673100
H 24.900400 9.065450 25.674400
H 25.591300 9.802670 25.910700
H 25.588600 9.807600 25.892100
H 23.394400 9.632230 26.290400
H 23.395800 9.651480 26.300900
H 23.326600 11.193700 27.086100
H 23.309800 11.161700 27.098700
H 22.871200 10.360900 26.771500
H 22.861500 10.332300 26.765600
H 23.842800 10.461700 26.623500
H 23.851200 10.484300 26.615500
H 24.375800 9.774870 26.145000
H 24.375700 9.761590 26.148300
H 25.805400 10.720400 26.339200
H 24.306600 11.317100 26.930100
H 25.811200 10.731100 26.303600
H 24.291200 11.291100 26.956600
H 24.824100 10.591000 26.481400
H 24.831200 10.607700 26.459600
H 24.427100 6.965280 29.679600
H 24.407100 6.976300 29.688000
H 24.422300 7.028620 29.694100
H 24.396500 6.995120 29.679400
H 25.294500 6.661730 29.274100
H 25.303400 6.615940 29.253300
H 25.285100 6.633660 29.259800
H 25.270600 6.634520 29.257900
H 26.075800 7.542990 29.659800
H 26.070500 7.510420 29.637100
H 26.049300 7.512480 29.656300
H 26.049600 7.524910 29.656100
H 26.312600 6.744830 29.105900
H 26.318700 6.718480 29.079300
H 26.300700 6.740120 29.089600
H 26.289100 6.721200 29.093900
H 27.203800 7.255660 29.234500
H 27.181700 7.267150 29.223000
H 27.201000 7.245420 29.204300
H 27.179100 7.231920 29.231300
H 27.702000 8.029840 29.633200
H 27.713900 8.055570 29.594600
H 27.692100 8.073530 29.624200
H 27.729300 8.057350 29.625500
H 23.901900 7.676220 30.259400
H 23.901000 7.706360 30.245400
H 23.924500 7.672890 30.243900
H 23.929700 7.747200 30.253300
H 25.103000 7.649440 29.949100
H 25.130700 7.684880 29.953900
H 25.124600 7.633820 29.937200
H 25.102800 7.643000 29.955300
H 23.948700 8.624930 30.801900
H 23.930500 8.549170 30.795100
H 23.904800 8.545890 30.821000
H 23.916800 8.577680 30.804200
H 24.439800 9.375600 31.206100
H 24.443300 9.359320 31.185500
H 24.415200 9.352270 31.222300
H 24.474200 9.426610 31.192900
H 24.863100 8.440720 30.511400
H 24.876300 8.425770 30.495000
H 24.851600 8.427800 30.521800
H 24.893900 8.483030 30.507800
H 25.809400 8.303760 30.218700
H 25.839000 8.341140 30.213700
H 25.798400 8.309710 30.222600
H 25.822200 8.302370 30.194900
H 25.547300 9.094500 30.789200
H 25.602200 9.139290 30.767600
H 25.573900 9.094320 30.752600
H 25.569600 9.095040 30.781100
H 26.519800 8.970910 30.452500
H 26.547400 8.997400 30.473500
H 26.494100 8.976410 30.490000
H 26.515900 8.958080 30.488300
H 26.784200 8.199240 29.919600
H 26.755700 8.166800 29.926000
H 26.768000 8.178970 29.894700
H 26.745300 8.191620 29.923400
H 27.717900 8.901160 30.192000
H 27.748300 8.935070 30.174100
H 27.695000 8.943190 30.185800
H 27.719800 8.931850 30.145800
H 27.255700 9.653650 30.733300
H 27.222300 9.612410 30.758000
H 27.217300 9.639460 30.710100
H 27.189800 9.643120 30.757300
H 25.365400 9.937450 31.321500
H 25.296200 9.879300 31.355700
H 25.325600 9.886260 31.310400
H 25.329800 9.886320 31.343500
H 26.348200 9.973000 31.179500
H 26.341000 9.988800 31.136400
H 26.311800 9.985750 31.185500
H 26.383500 10.020500 31.153300
H 22.776900 11.861800 27.573900
H 23.771300 12.265100 27.522200
H 23.745100 12.227800 27.556800
H 22.802000 11.903100 27.556700
H 24.762000 12.149900 27.244800
H 24.739500 12.120500 27.289600
H 25.493700 11.568800 26.844000
H 25.508700 11.588400 26.798700
H 32.196300 2.436560 14.117000
H 33.075300 2.019460 13.961600
H 33.106700 1.969830 13.958700
H 32.159900 2.473840 14.127000
H 31.620600 3.128980 14.627800
H 31.578300 3.156710 14.643800
H 32.820900 2.857710 14.774600
H 32.492000 3.241650 15.041300
H 33.240500 2.673030 14.700200
H 31.486300 3.885110 15.373700
H 31.533900 3.861560 15.354100
H 33.114300 3.991370 16.050800
H 32.489700 3.570210 15.393200
H 32.657100 3.895220 15.779900
H 32.783100 4.703870 16.669300
H 32.732000 4.737860 16.685500
H 31.959400 4.438010 16.101400
H 31.908600 4.463850 16.121000
H 33.273100 2.454240 19.968900
H 33.248600 2.445700 19.927300
H 29.542900 2.218080 22.240700
H 29.560600 2.207810 22.261600
H 30.368900 1.368210 21.994500
H 30.400500 1.357340 21.996700
H 30.405800 1.330460 22.034100
H 30.202200 2.263570 21.502300
H 30.245900 2.222350 21.533500
H 30.215900 2.247630 21.501700
H 33.084200 0.699208 22.222200
H 28.188300 3.969250 22.378500
H 28.920500 2.969560 22.360900
H 29.263000 2.686550 22.191400
H 28.965600 3.745860 21.732300
H 28.910900 3.746400 21.726300
H 28.925200 3.785860 21.729600
H 29.670700 3.122090 21.402700
H 29.673800 3.148500 21.405400
H 28.157100 4.004900 22.388200
H 28.890400 2.967460 22.353000
H 28.140200 3.953270 22.385700
H 29.718700 3.106450 21.423000
H 33.298200 3.151670 20.682800
H 33.329500 3.171860 20.712900
H 29.199700 1.334460 23.271900
H 28.849400 1.409600 23.606400
H 28.830200 1.416960 23.618300
H 28.441400 1.762660 23.763300
H 29.522400 1.439150 22.867400
H 29.515500 1.431510 22.890200
H 28.875300 2.193260 22.989600
H 28.869900 2.188530 22.979700
H 28.852200 2.224610 22.977300
H 28.196900 2.158980 23.718700
H 28.190000 2.178710 23.717700
H 28.779100 0.663346 24.225100
H 29.610500 1.796410 22.485900
H 30.155600 0.669751 22.790800
H 30.174900 0.689766 22.755200
H 30.129100 0.702312 22.750100
H 33.126000 1.430240 22.954000
H 28.504600 3.114750 22.682800
H 28.217400 2.937910 23.092000
H 28.235200 2.955010 23.089000
H 28.093800 2.652810 23.468800
H 28.030600 1.300720 24.549300
H 28.031900 1.280070 24.556300
H 28.069100 1.254970 24.556700
H 29.562400 33.115500 23.600800
H 29.547300 33.142500 23.566500
H 28.785000 33.338900 24.247000
H 28.828900 33.328900 24.233100
H 29.599700 33.122000 23.573700
H 2.824630 16.111600 1.139680
H 2.600820 16.931100 2.041970
H 2.799260 15.958500 2.163230
H 2.667550 16.326700 3.121790
H 2.736860 16.744800 33.023600
H 2.371170 18.296800 1.001800
H 2.402380 17.903600 1.920710
H 2.569620 17.324200 1.123060
H 5.223210 18.301500 1.033920
H 5.219690 18.329700 1.077420
H 5.398050 17.328300 0.884387
H 5.397660 17.355000 0.942758
H 5.100860 18.693300 2.001330
H 5.106850 18.651500 1.963360
H 5.317790 17.431400 1.911350
H 5.315500 17.473200 1.967930
H 2.137200 19.480600 0.719618
H 2.005490 19.848700 1.678180
H 2.203930 18.876200 1.799440
H 5.041730 19.304400 1.212080
H 5.048370 19.274600 1.183450
H 4.863760 20.279200 1.346730
H 4.873530 20.247700 1.332980
H 4.922890 19.668000 2.135990
H 4.932010 19.624600 2.112890
H 4.698690 21.220900 1.482510
H 4.685800 21.253900 1.481390
H 4.699010 20.849800 2.434410
H 4.712130 20.802500 2.429330
H 2.464780 17.117300 3.758530
H 2.433580 17.510500 2.839620
H 2.235140 18.483000 2.718350
H 2.245290 18.118700 3.902820
H 5.165340 18.028400 2.743270
H 5.159980 18.082100 2.790580
H 1.980120 19.695700 2.701730
H 2.067900 19.062400 3.516000
H 4.972780 19.018600 3.190270
H 4.981540 18.959300 3.157230
H 4.804060 20.031600 3.059900
H 4.815660 19.974700 3.042330
H 2.339970 18.689900 32.781100
H 2.559460 17.688500 32.636800
H 5.384620 17.746700 32.635800
H 5.384440 17.759100 32.687900
H 5.279400 18.577300 32.062400
H 5.281090 18.574500 32.022800
H 4.982600 19.915600 33.121000
H 5.160560 18.940900 32.986400
H 5.164730 18.924600 32.952200
H 4.931410 20.520800 32.321800
H 4.923470 20.526800 32.331800
H 5.115200 19.589900 31.907900
H 5.110670 19.590300 31.932100
H 4.989890 19.897700 33.101700
H 4.778950 21.117800 33.153700
H 4.767960 21.135700 33.154400
H 8.905080 18.154600 0.946547
H 8.885330 18.159600 0.933471
H 8.847160 18.087300 1.942560
H 8.829530 18.083600 1.928980
H 9.062510 17.004300 1.379990
H 8.938820 17.192400 2.369290
H 8.960540 17.200900 2.391260
H 9.037070 17.004500 1.356010
H 8.733770 18.973700 1.493870
H 8.720240 18.974700 1.488670
H 8.620380 19.860200 1.045170
H 8.610950 19.865800 1.048350
H 8.555140 19.789800 2.043860
H 8.562460 19.792900 2.041190
H 8.403400 20.944900 1.621320
H 8.405030 20.943200 1.607750
H 8.782000 17.857900 3.146610
H 8.797810 17.872500 3.162080
H 8.664430 18.898700 2.484170
H 8.675850 18.906500 2.489880
H 8.617920 18.839200 3.485900
H 8.608630 18.822700 3.479680
H 8.465170 19.828200 3.279270
H 8.469080 19.842000 3.275960
H 8.391150 20.612100 2.588500
H 8.390050 20.604900 2.599060
H 9.050430 17.344400 33.076500
H 8.998460 18.105500 32.410000
H 8.975310 18.121200 32.396300
H 9.076390 17.335400 33.097400
H 8.791690 19.041000 33.196000
H 8.658470 20.091400 32.528900
H 8.831840 19.126700 32.195800
H 8.849610 19.108300 32.200000
H 8.669730 20.075000 32.523800
H 8.776040 19.050700 33.191400
H 8.507000 20.746600 33.294700
H 8.501650 20.756900 33.306200
H 13.636500 1.369160 5.784240
H 13.609500 1.340190 5.819190
H 14.033900 2.282760 5.875650
H 14.068000 2.308460 5.841780
H 13.535200 0.821163 7.424130
H 13.947900 1.639630 7.767400
H 13.951000 1.675680 7.735360
H 13.793800 1.522420 6.759800
H 13.611900 1.058740 7.026070
H 13.990900 1.961200 6.821520
H 14.209500 2.376940 7.071030
H 14.435200 3.053010 6.439000
H 14.326900 2.542080 7.562850
H 14.729600 3.472140 7.327640
H 14.706000 3.444540 7.358300
H 14.468100 3.078200 6.406700
H 13.568900 0.737176 7.971940
H 13.692500 0.974423 8.399690
H 13.904900 1.318060 8.713270
H 14.108300 1.828940 8.710910
H 13.834100 1.042910 9.628930
H 13.862000 0.996499 9.659140
H 14.265500 1.982200 9.686470
H 14.286300 1.939070 9.715600
H 14.284000 2.220520 8.508720
H 14.366800 2.530200 8.046590
H 14.782600 3.384720 8.357820
H 14.773600 3.352450 8.387210
H 14.620000 2.801410 9.250050
H 14.612700 2.839360 9.221210
H 12.546200 18.828400 2.135350
H 12.529500 18.993000 1.094930
H 12.564500 18.997800 1.114240
H 12.499800 18.828700 2.116610
H 12.307400 20.210100 1.118720
H 12.289400 20.208800 1.091500
H 12.313600 19.804900 2.005960
H 12.345400 19.802400 2.030990
H 11.868700 22.371900 0.752729
H 12.144500 20.776400 1.926630
H 12.127400 20.781100 1.895300
H 12.106500 21.184100 1.014360
H 12.103200 21.185000 0.980850
H 11.943700 21.750400 1.822270
H 11.941200 21.757300 1.784650
H 11.884400 22.374700 0.711612
H 14.980100 20.675600 1.576930
H 14.830300 22.195500 0.760098
H 14.831800 21.664000 1.607130
H 12.420300 19.180900 3.100540
H 12.370400 19.187500 3.079000
H 12.151600 20.377200 2.809760
H 12.182500 20.368700 2.838900
H 12.175800 19.973400 3.724220
H 12.220400 19.960900 3.751180
H 12.000300 20.959500 3.912930
H 11.968300 20.975600 3.879380
H 11.818700 21.909000 3.542460
H 11.803400 21.925800 3.502910
H 11.981600 21.342700 2.734550
H 11.965400 21.353500 2.699110
H 14.856500 20.897400 2.580530
H 14.684900 22.121000 2.484370
H 14.686400 21.589500 3.331400
H 12.470300 19.643900 33.009000
H 12.451400 19.636400 32.985900
H 12.288800 20.593300 32.638500
H 12.286500 20.586600 32.609400
H 12.079000 21.588800 32.764600
H 12.068600 21.591900 32.800300
H 15.024300 20.983500 33.287700
H 14.977100 21.738500 32.581100
H 11.742800 22.724400 1.717920
H 11.755000 22.733500 1.674000
H 14.681900 23.183900 0.790298
H 14.535100 23.640900 1.667530
H 14.683400 22.652500 1.637330
H 14.386700 24.629300 1.697730
H 14.510400 24.407500 0.694133
H 11.724500 22.555000 2.739030
H 11.725300 22.569200 2.695680
H 14.536600 23.109400 2.514570
H 14.389700 23.566400 3.391800
H 14.515600 22.566400 3.628350
H 14.342500 24.321500 2.685150
H 14.680400 23.715400 32.641500
H 14.851200 22.738500 32.344500
H 13.039200 28.899600 1.188450
H 13.018400 29.020000 2.216460
H 14.941000 28.694600 1.772250
H 13.990100 28.797100 1.480350
H 14.226900 28.873900 2.448840
H 14.704300 28.617900 0.803755
H 16.842800 28.489700 2.356040
H 15.891900 28.592200 2.064140
H 16.863700 28.369300 1.328030
H 15.655200 28.515400 1.095650
H 13.512700 29.053200 3.125440
H 14.389800 28.990300 3.671830
H 15.177800 28.771400 2.740740
H 16.312400 28.665000 3.227620
H 15.414500 28.848200 3.709230
H 16.713900 32.000800 6.008580
H 16.756500 32.053000 5.998060
H 16.500100 30.997000 7.725090
H 16.529000 31.041100 7.708040
H 16.486100 31.299300 6.735080
H 16.527500 31.345900 6.718690
H 13.119500 32.664800 7.112900
H 13.122200 32.625000 7.147580
H 13.289400 33.210200 6.249500
H 13.275800 33.176000 6.284750
H 16.944100 31.893000 7.721810
H 16.957500 32.096600 7.220130
H 16.752000 31.174800 8.713350
H 16.760500 31.220300 8.701020
H 13.189800 32.532900 8.176490
H 13.172400 32.577400 8.143080
H 13.434000 32.971400 9.064010
H 13.460600 32.924400 9.095790
H 13.569600 28.724300 33.015100
H 14.467500 28.541100 32.533500
H 16.369300 28.336100 33.117200
H 15.492300 28.399000 32.570900
H 17.615100 1.160990 6.011600
H 17.601900 1.094530 6.002010
H 17.701100 0.962606 7.231860
H 17.832100 0.986729 7.715240
H 18.246200 1.955280 7.735120
H 18.276100 1.882700 7.711950
H 18.024200 1.704870 6.723700
H 18.014700 1.776110 6.742140
H 18.062300 0.878926 9.428470
H 17.817600 0.899790 8.223020
H 18.247700 1.650480 8.724470
H 18.290100 1.580390 8.701970
H 18.018700 0.943389 9.445100
H 18.000400 24.641800 1.823460
H 18.697700 25.186800 2.288940
H 17.979200 25.563200 1.352040
H 18.337300 26.529800 1.256400
H 19.731900 27.619800 2.187370
H 18.866200 26.130800 2.005410
H 18.978900 27.282600 1.562150
H 18.395300 24.012400 2.544320
H 19.058100 23.843700 3.321490
H 19.811100 24.181000 3.946710
H 19.395000 25.731800 2.754430
H 19.226500 24.787700 3.037960
H 20.452700 24.933700 4.252470
H 19.923800 25.332700 3.503450
H 20.810800 25.900300 4.156820