9000
Atoms. Timestep: 0
N 1.654110 1.048680 2.391230
N 1.220980 2.403220 1.181640
N 2.563990 0.927124 2.174590
N 3.023910 1.742520 2.230740
N 1.690560 3.961320 0.910801
N 1.914850 3.986020 1.889210
N 2.045270 2.811360 1.094600
N 0.723280 3.917350 0.939718
N 3.401400 3.496130 1.795520
N 2.856850 3.742650 0.964669
N 2.668550 3.743660 2.364470
N 5.508040 4.040350 0.930170
N 4.815700 3.086590 1.436200
N 5.730010 3.361800 1.591210
N 4.319920 3.023720 2.228920
N 0.818790 4.399980 1.948340
N 1.916690 5.992410 1.466690
N 2.278260 5.932140 2.389600
N 2.675550 5.751380 0.804173
N 2.974410 5.655260 1.707360
N 3.544470 5.366760 1.048900
N 3.972190 5.294770 1.867620
N 4.679330 5.912530 1.995100
N 5.311200 5.782530 1.172880
N 4.273290 5.995040 1.106670
N 0.902908 1.635260 2.558130
N 2.941300 1.734510 3.207510
N 0.911939 3.952740 2.809320
N 1.923710 4.106870 2.950360
N 2.286160 4.087590 4.122640
N 2.980640 3.910330 3.466540
N 3.681840 3.486380 2.917360
N 3.965300 3.438990 3.791110
N 4.532850 2.961490 3.141510
N 1.538630 4.528340 3.747850
N 3.235340 5.678540 2.720960
N 3.993450 5.287920 2.997020
N 5.093890 4.344180 3.695740
N 4.941410 5.194080 2.716070
N 5.848330 4.401430 3.072570
N 5.866640 5.282450 2.763870
N 3.843910 4.228510 4.746140
N 2.871750 4.521640 5.096760
N 2.760270 5.646130 5.015050
N 3.632800 4.325580 5.678680
N 4.686420 4.618050 4.543940
N 2.135590 5.864190 28.200300
N 2.963790 5.698920 28.643700
N 4.104500 5.802230 30.859300
N 2.302860 3.789500 32.655500
N 1.370890 3.551250 32.317600
N 1.812000 2.775270 32.689700
N 2.868660 3.075130 32.269600
N 4.001800 4.004230 32.196400
N 3.510070 3.325850 32.964700
N 4.877120 3.962560 32.724000
N 2.012910 5.851500 31.786900
N 2.379010 4.868310 31.917800
N 0.883168 4.465760 32.741200
N 1.500500 4.468730 31.924000
N 2.946810 5.480580 32.382900
N 4.947640 5.596570 32.810200
N 4.513590 5.656010 31.917100
N 5.905120 5.960540 33.001700
N 1.785080 7.187200 1.401330
N 1.177500 7.349420 2.260970
N 2.353300 7.036810 2.418510
N 1.126170 6.478050 1.200170
N 1.501410 6.463550 2.323230
N 2.707630 6.631330 1.626620
N 3.339550 6.464090 0.941974
N 2.484850 6.749520 0.642206
N 5.725360 6.385220 2.046340
N 5.770450 7.359060 1.980670
N 4.812860 7.845110 1.597050
N 5.455740 7.569950 0.808785
N 2.333880 8.917940 1.858900
N 1.998060 8.829610 0.986227
N 1.142190 9.138960 1.104890
N 0.669487 8.102150 2.413860
N 1.426660 9.098600 2.337920
N 3.127250 8.573760 2.102800
N 2.964050 8.608370 1.159720
N 3.879620 8.183200 1.291480
N 3.864900 9.127650 1.477410
N 4.185870 8.194230 2.250470
N 4.898630 8.737840 1.753440
N 5.696250 8.385580 2.181980
N 5.417230 8.525260 0.919385
N 4.466730 8.858490 0.777665
N 2.152850 10.731200 1.872460
N 1.941250 9.794820 1.791680
N 2.930600 9.712490 1.154280
N 3.114260 9.715520 2.272240
N 3.997730 11.305000 2.033310
N 3.068190 11.319700 2.317410
N 4.482410 10.850500 1.298150
N 5.597050 10.604300 1.362860
N 5.536830 11.433400 2.372510
N 1.472470 6.801440 4.190250
N 1.790610 7.355280 3.302900
N 2.061330 7.851240 4.053600
N 3.140770 6.585220 2.849440
N 3.748550 6.607920 3.938530
N 2.652390 7.004050 3.620880
N 4.223960 6.291660 2.916110
N 3.271820 7.586890 4.116730
N 5.545320 7.250040 3.145130
N 4.590930 6.925970 3.498360
N 5.170300 6.257450 2.832020
N 2.183780 8.624240 3.458300
N 3.947490 9.256850 2.443570
N 3.740540 8.479580 3.076460
N 2.841150 9.111330 2.949050
N 3.775020 9.632990 3.245220
N 4.247740 8.016840 3.768990
N 4.896950 7.921140 3.019660
N 5.539040 9.022370 2.826820
N 5.714050 9.136700 3.769960
N 2.019160 9.888400 2.770450
N 2.663350 9.972670 3.472800
N 4.768380 10.882300 2.575680
N 4.488490 10.177100 3.085430
N 2.184550 6.255070 4.513480
N 3.176950 6.409670 4.655610
N 3.975490 9.486360 4.281630
N 3.508170 9.379680 5.135800
N 5.686070 8.688380 4.601490
N 5.925420 8.786720 5.596710
N 4.170310 10.053400 5.430850
N 3.192240 10.056300 4.301110
N 5.441890 10.841100 4.423970
N 4.282360 10.625300 6.176430
N 4.918040 9.933310 7.614840
N 5.491950 11.196600 7.740240
N 4.289610 9.875380 6.827660
N 5.146880 10.507600 8.320700
N 1.162580 10.230600 25.440700
N 1.985750 10.795700 25.207400
N 2.745540 6.427740 27.741400
N 3.130710 6.788600 26.957500
N 2.840070 7.579570 27.443700
N 1.505110 9.343440 26.266500
N 2.370160 9.571440 26.679900
N 2.574910 8.861570 26.101700
N 3.710310 7.895070 27.098400
N 3.129030 8.558450 26.808600
N 2.355540 11.118400 25.974200
N 0.694571 9.830690 26.153100
N 3.542360 8.988660 29.003200
N 3.140820 9.498590 28.106000
N 3.277130 9.969400 28.927000
N 5.647070 10.672300 29.366400
N 1.076600 7.432310 30.356700
N 2.068500 7.816310 30.213200
N 1.676020 7.042520 31.143200
N 3.372060 6.411460 30.674600
N 2.705280 7.488080 29.592900
N 2.610160 7.097880 30.553400
N 3.644700 7.348390 29.943700
N 3.442120 7.842730 30.756200
N 4.443360 6.620230 31.126600
N 4.436870 7.643130 31.234700
N 1.428710 7.922500 31.100800
N 2.399320 9.274940 30.266700
N 2.467690 8.520680 30.814500
N 3.717950 8.857700 30.601000
N 2.999660 9.442370 30.985500
N 3.354390 9.511980 29.848200
N 4.991250 9.171140 29.840900
N 4.420990 8.203400 30.445000
N 5.781330 8.798580 30.286100
N 2.176380 9.923150 31.118200
N 2.031760 10.823300 30.880700
N 2.797760 11.369700 31.191300
N 3.615480 11.301700 30.615700
N 3.051750 10.369400 30.126700
N 2.760270 11.294500 30.171800
N 5.927490 11.193800 30.166300
N 5.156420 10.077200 29.923200
N 4.464720 10.807800 31.043300
N 5.459500 11.169700 31.174400
N 4.994220 11.372700 29.966900
N 5.620770 10.231600 30.977200
N 1.891590 6.060520 32.772100
N 2.042830 6.865720 32.281200
N 1.015640 7.074340 31.916000
N 1.498890 7.199810 33.018500
N 4.001950 6.086580 32.746600
N 2.706280 6.492320 31.565100
N 3.070080 6.525160 32.471900
N 4.152330 7.852280 32.241500
N 3.691650 6.113710 31.827700
N 5.860640 6.915910 32.416500
N 4.536970 7.733120 33.099600
N 5.216120 7.011200 31.519400
N 5.372110 6.213580 32.005300
N 5.157770 7.585490 32.379700
N 2.392060 8.656780 31.725900
N 2.315440 9.595330 32.995100
N 4.062980 8.738820 31.485100
N 3.440750 9.345230 32.935700
N 2.581890 9.492680 32.068700
N 2.628610 8.600890 32.765400
N 4.162800 8.995530 32.397800
N 3.535230 8.263200 32.870600
N 3.284750 8.149200 31.958100
N 6.024650 7.925160 31.858800
N 5.027540 8.300090 31.580500
N 5.146120 8.522370 32.483500
N 1.868920 11.293700 32.209800
N 1.068270 11.091000 32.724300
N 3.389690 11.312000 32.733800
N 4.883670 10.633900 31.898100
N 5.887910 10.025400 31.886700
N 5.266930 10.519500 32.812100
N 5.502610 11.449000 32.383300
N 4.251600 11.009700 32.926400
N 2.274880 11.675800 1.969430
N 3.702410 13.024100 1.050970
N 4.057670 12.155800 0.860757
N 5.441470 12.074600 1.672480
N 5.203860 12.979800 1.943460
N 3.589800 15.041000 1.301260
N 2.960150 14.746400 1.948840
N 3.035200 14.355300 0.959141
N 4.535330 13.413700 1.389720
N 5.130050 15.012300 0.850401
N 5.984780 13.503100 1.184710
N 3.336480 15.614100 2.199670
N 2.583000 16.205000 2.277830
N 2.870890 16.585300 1.466540
N 5.676370 15.480900 1.458870
N 5.146220 16.392800 2.154220
N 5.289980 15.430400 2.334530
N 4.249820 16.315200 2.507660
N 4.042430 12.662200 5.539620
N 3.413240 13.223500 5.917780
N 4.628560 12.345300 4.866230
N 5.324060 11.779100 4.754110
N 5.786020 14.863600 5.443710
N 5.749610 16.687400 5.908270
N 5.898680 15.748000 5.652590
N 3.311670 12.651000 6.682830
N 2.481450 13.176500 6.573160
N 5.873290 12.049400 7.451570
N 1.799600 13.833800 6.795190
N 2.060920 14.689000 6.377470
N 1.284280 14.851600 6.886280
N 5.986830 15.524100 7.237720
N 5.618280 16.062800 6.610600
N 5.528150 13.563000 8.482370
N 5.904930 12.043000 9.956140
N 5.533710 12.702500 10.570900
N 4.719930 13.230000 10.639100
N 4.129340 13.428100 9.888350
N 4.293110 14.381100 9.698000
N 1.862890 16.818300 11.177800
N 3.721240 15.103900 10.051400
N 3.049390 15.497700 11.450900
N 3.691840 15.680200 10.804800
N 2.261800 15.988700 11.552000
N 0.632050 15.571800 11.743100
N 2.185720 12.124300 27.506100
N 2.248830 11.909900 26.535800
N 2.351900 11.721600 28.369800
N 3.813250 12.255900 28.563600
N 2.935190 12.554000 28.180500
N 4.246070 12.915000 29.067000
N 5.322940 11.647000 28.843300
N 5.114130 13.320600 28.932700
N 4.532520 14.022100 29.189300
N 5.797630 13.101100 29.976600
N 4.394950 11.843100 30.524300
N 3.683860 14.616900 30.002200
N 2.924640 15.052400 30.540600
N 3.385580 14.286100 30.964100
N 2.429430 13.749900 30.664400
N 5.190230 13.799900 29.851900
N 5.943000 13.335100 30.991800
N 4.447210 14.135900 30.519300
N 4.930650 13.677200 31.142400
N 4.306130 15.090700 30.515500
N 2.488380 11.713100 32.859400
N 4.381230 12.111400 32.501000
N 4.779280 11.748200 31.747100
N 2.229790 14.292100 31.422900
N 3.944390 14.609600 31.697800
N 3.565700 13.975600 32.768200
N 2.923400 14.218700 32.041100
N 5.887030 13.349300 32.814200
N 4.613790 13.963100 32.067500
N 4.574600 14.114300 33.044700
N 5.549860 13.510200 31.860500
N 3.414220 16.967000 0.692019
N 5.655510 20.074400 2.419790
N 5.626180 18.758000 1.832120
N 4.194420 18.153500 3.692080
N 4.924920 17.656100 3.923620
N 5.096640 19.267300 2.589760
N 4.348310 19.022200 3.184540
N 5.732650 17.308300 4.287890
N 1.750260 17.630000 11.701800
N 5.414490 20.158300 29.445800
N 5.246040 21.014000 29.066600
N 4.453480 21.639400 29.093000
N 5.784050 19.384100 30.780200
N 5.682560 20.236600 30.504300
N 6.041140 20.780400 29.828100
N 4.113050 17.167300 32.715900
N 5.836800 16.998800 32.303600
N 5.043850 17.165300 32.848200
N 5.031550 22.347500 29.325600
N 5.520560 22.506900 30.118500
N 5.251570 23.291600 30.940500
N 5.467100 22.390500 31.247200
N 7.482780 5.339300 0.978315
N 7.491690 3.847460 3.046870
N 7.305070 2.711290 2.627970
N 7.960770 2.450750 3.258880
N 8.233010 3.381310 3.517430
N 7.844950 4.528750 2.453870
N 8.059500 5.412690 3.371240
N 8.971870 5.536840 3.629970
N 8.579150 5.090110 2.624500
N 11.076500 5.132970 3.455900
N 9.047060 5.554620 4.780190
N 10.582700 5.796540 5.800560
N 9.980110 5.688900 5.032430
N 11.398000 3.047510 7.791460
N 8.231520 5.295220 7.196560
N 8.992600 5.288990 7.814480
N 10.860300 5.234640 7.300170
N 10.105900 5.971980 6.661230
N 9.897080 5.160520 7.377100
N 11.180000 3.907800 8.134490
N 7.042900 5.973650 8.008500
N 7.830900 5.420740 8.070300
N 8.098860 5.909200 9.654220
N 9.546770 4.968780 8.639560
N 9.347410 5.947820 8.501520
N 10.285900 5.468310 8.211830
N 11.232800 5.706630 10.624000
N 8.921690 4.210200 31.843300
N 6.773360 5.627010 33.021400
N 7.635450 4.595950 32.925800
N 8.546410 4.604670 32.714700
N 6.309740 7.044140 1.238010
N 7.953060 7.296930 2.067200
N 9.653880 7.203440 2.001320
N 8.793900 6.914410 1.793970
N 11.364100 7.322490 1.573170
N 11.295500 7.007430 0.716659
N 6.313460 7.983910 1.192430
N 9.376860 8.076010 1.692440
N 8.898880 8.908170 1.526740
N 8.426640 9.152480 0.688243
N 11.045400 9.285060 1.929580
N 6.369550 10.116000 0.994179
N 6.866330 9.894340 1.791430
N 7.280740 10.763200 1.721840
N 11.305500 10.209300 1.748280
N 10.861700 10.968600 2.254090
N 7.337460 6.823670 2.614860
N 6.451040 6.999120 2.908540
N 9.209150 6.296160 4.157940
N 11.103700 7.814770 2.985520
N 11.316200 6.847790 3.552190
N 11.426700 8.773060 3.442910
N 8.842490 10.911700 4.212120
N 9.250220 9.859400 3.626690
N 8.876310 11.071200 3.253770
N 11.282100 11.073600 4.054810
N 10.190700 9.864000 3.862610
N 10.687800 10.574100 3.434320
N 9.224250 7.200070 5.928100
N 9.719600 7.824530 4.684810
N 9.698770 6.964620 5.124960
N 10.294900 9.607890 5.484340
N 10.293800 8.617580 5.506870
N 6.358160 10.306000 5.831540
N 6.319490 10.706800 4.276530
N 6.725210 10.801700 5.095510
N 9.619010 10.460800 5.639560
N 9.280420 11.124600 5.023480
N 7.214070 7.202650 7.346280
N 9.281800 6.621260 6.673780
N 8.857870 7.293120 7.460210
N 8.052510 7.101730 6.942170
N 7.935560 7.724710 7.741970
N 10.945900 7.029090 6.827300
N 9.878700 7.157290 7.128840
N 10.528100 7.587620 7.578880
N 11.043600 6.049530 6.782180
N 6.944340 9.345110 7.135500
N 7.510030 8.898400 7.760120
N 6.509410 9.476120 6.308840
N 9.416900 8.392420 7.081680
N 9.603110 9.295650 6.057070
N 9.846240 9.137670 7.472830
N 10.900800 9.176160 7.842760
N 10.520600 8.329980 7.017450
N 10.860100 8.252820 6.149840
N 7.159090 10.702600 7.674690
N 6.863200 10.491500 6.759640
N 7.280730 11.327600 6.668990
N 8.922010 10.025800 6.100370
N 10.987300 10.390300 6.534800
N 11.298000 9.807850 7.191120
N 6.697250 6.800780 8.367230
N 7.448880 6.340810 9.129850
N 6.613220 7.706790 7.989140
N 6.476730 7.826120 9.102510
N 6.646180 6.747790 9.433510
N 8.395660 6.047190 8.747780
N 9.126170 6.564890 9.163510
N 8.189370 6.972050 9.503580
N 10.216100 6.282730 8.808070
N 10.928200 7.009550 9.330210
N 9.992750 7.164260 9.563200
N 11.181600 6.126590 8.618280
N 6.945830 8.455740 8.522920
N 7.470730 9.380020 9.353660
N 7.833250 9.575080 8.495540
N 6.089750 8.741880 9.079880
N 7.951210 8.563090 8.612770
N 8.683070 8.196290 8.112230
N 9.638300 8.750620 8.605310
N 8.647420 9.175140 9.065610
N 8.872010 9.278090 8.092980
N 9.449920 9.561970 9.361190
N 9.686980 8.010140 7.939400
N 10.594700 8.386390 8.273900
N 10.366900 9.186710 8.925570
N 11.349200 8.962430 8.690930
N 11.437700 8.121230 7.892520
N 9.074100 10.612500 7.994040
N 9.634820 9.923840 8.387860
N 11.131600 9.817630 9.624700
N 10.170900 10.209400 9.183570
N 7.343430 7.168010 9.951220
N 8.945390 7.842400 11.407700
N 9.034480 7.457440 9.802260
N 8.265970 7.042260 10.763800
N 8.921320 6.621700 10.201000
N 8.115200 7.766880 10.220700
N 11.120500 6.084990 9.764180
N 10.173500 6.289920 9.887230
N 9.672710 7.140030 10.756300
N 10.604700 7.202670 10.811800
N 10.888500 7.646290 10.014700
N 6.786090 8.866650 9.751750
N 7.375780 9.053020 10.639200
N 8.401780 9.547430 10.863900
N 8.086570 8.607130 10.952600
N 8.917320 8.148290 10.522900
N 10.430100 9.444890 11.316500
N 9.684210 8.853310 11.021700
N 9.888590 7.977430 10.263400
N 10.685300 8.355510 10.687700
N 11.268400 7.921200 11.265700
N 6.606210 11.425100 9.680930
N 7.321180 11.205000 10.250200
N 7.407220 9.940680 10.317100
N 8.986710 10.638300 10.156800
N 8.342090 11.318700 10.063300
N 9.492880 9.784610 10.905100
N 8.419960 9.884590 9.922850
N 9.493240 10.824300 11.101100
N 10.965500 9.748250 10.547100
N 9.950870 10.156100 10.087500
N 9.341470 7.440470 12.154200
N 8.873060 10.806900 11.854300
N 8.428580 10.015900 11.690600
N 10.479100 11.374600 11.801000
N 7.639810 10.695300 18.824400
N 6.963750 11.362000 18.945400
N 6.304670 11.271500 27.051000
N 7.426730 11.165400 26.378200
N 7.390940 11.458200 27.318600
N 6.569070 10.809700 26.269400
N 7.301240 10.335900 27.201400
N 8.110480 10.793600 27.407900
N 6.978550 10.467000 28.130800
N 6.796050 10.966400 28.959400
N 7.550640 11.138300 29.550500
N 8.774150 11.213500 28.177800
N 9.671680 11.266200 28.961400
N 9.725190 11.334500 27.994600
N 6.508130 8.510290 31.313100
N 6.605630 8.275630 30.349500
N 9.106880 11.238100 30.773800
N 8.209730 11.058700 30.466700
N 10.769700 10.759000 30.779700
N 6.139410 8.075480 32.797300
N 8.680070 8.851530 32.353700
N 8.002040 9.452660 32.256200
N 6.301370 11.059000 32.107900
N 6.940190 10.784700 32.943400
N 7.819380 10.379100 32.053000
N 6.799060 9.720040 31.577500
N 6.582130 9.883870 32.477200
N 6.808090 10.658400 31.422900
N 7.851560 10.450500 33.005700
N 6.083300 11.019300 33.142900
N 11.357900 9.826600 31.907900
N 10.617700 10.048500 31.387400
N 10.852200 11.291900 31.574900
N 7.380790 12.524300 0.991067
N 7.767700 11.671200 0.947791
N 6.304470 12.877100 2.053560
N 8.662700 12.338600 0.657817
N 10.444100 12.703100 1.663760
N 10.203200 11.995000 1.022580
N 10.560300 11.836700 2.060910
N 6.855180 13.545700 1.646870
N 7.533150 14.421900 2.239290
N 6.051790 14.917100 0.712817
N 8.905850 14.263100 1.509650
N 8.631680 13.291900 0.885043
N 10.792100 14.204900 1.445080
N 10.368300 13.763400 2.248410
N 8.294790 15.240500 1.021000
N 8.980480 15.139100 1.843080
N 8.186360 16.205800 0.986315
N 8.640510 16.045300 1.811330
N 11.217400 15.683900 0.922230
N 10.882100 15.340400 1.684700
N 10.767200 16.456100 1.747890
N 10.345900 16.071600 0.724034
N 6.593370 13.196200 2.913650
N 8.009630 12.438200 3.045020
N 8.633020 13.238000 3.144170
N 8.086970 11.531200 3.552130
N 10.443600 13.259500 4.020930
N 11.236900 12.004000 4.228430
N 6.808080 14.085100 2.738580
N 7.974490 14.011600 2.996330
N 9.243570 14.412100 3.392230
N 9.524320 14.231000 2.469690
N 10.825100 13.791400 3.340560
N 10.095800 14.722000 3.553310
N 11.068500 14.674900 3.736710
N 11.455600 14.878100 2.859070
N 9.244710 16.516100 2.931500
N 9.192890 15.540800 2.903020
N 11.224500 16.275100 2.605960
N 9.910440 16.649300 4.021210
N 9.871720 15.842400 3.519840
N 7.437550 11.731900 5.480320
N 10.820300 12.512700 4.911820
N 7.174580 14.898400 4.662970
N 6.392810 14.355600 4.596540
N 7.885420 14.655800 5.341650
N 8.750950 14.362400 5.028660
N 8.916700 13.755700 5.722630
N 11.290600 13.359700 4.486150
N 6.148720 15.271400 4.634620
N 8.342120 16.824800 5.734550
N 10.482000 16.112600 4.501750
N 11.303000 16.338600 5.347190
N 10.104700 15.244000 4.381800
N 6.598910 11.497200 7.689520
N 8.017250 11.848000 6.235860
N 6.711870 14.899200 7.260260
N 7.190060 14.443600 6.493680
N 7.465150 14.256700 7.392110
N 9.326590 14.965200 7.720960
N 9.389120 14.755200 6.737760
N 9.651150 13.942800 6.327460
N 8.106280 13.503800 7.054630
N 9.753480 15.775500 7.275720
N 10.236500 16.540800 7.567390
N 11.435600 16.320900 7.213790
N 11.289200 16.702600 6.316810
N 7.491750 13.107200 9.055280
N 9.045350 11.570300 8.297470
N 9.162540 12.379500 8.797110
N 8.381770 12.998800 8.639730
N 6.917480 13.602200 9.583880
N 6.149600 13.949300 9.139250
N 11.046200 16.768200 7.977890
N 7.871770 12.012700 10.522900
N 10.557900 11.895500 11.001900
N 9.698120 11.647200 10.654600
N 9.660380 12.168800 12.945400
N 10.432300 12.139900 12.390400
N 10.358700 12.366800 13.559500
N 7.402510 12.242400 18.939100
N 8.146410 12.522000 20.493800
N 7.973460 12.694000 19.549800
N 9.155250 12.857200 20.047800
N 10.047700 13.206100 19.807000
N 8.739010 13.199100 20.832200
N 10.360800 14.027400 22.144500
N 10.220900 14.481600 21.243100
N 9.748360 13.571300 20.644400
N 10.600900 13.642300 21.077100
N 7.472040 13.215000 23.565900
N 8.144100 13.860700 23.209000
N 8.800140 14.468400 23.714200
N 9.768880 14.735400 23.654400
N 10.793700 13.898400 23.799600
N 9.918120 13.813000 23.492600
N 10.721900 14.349100 22.922400
N 6.878200 12.909800 24.251700
N 7.528120 13.431900 25.389800
N 6.863970 13.736300 24.819500
N 6.335030 13.095200 27.467800
N 6.405970 12.061000 27.575900
N 6.786070 12.524600 26.822800
N 8.172530 13.198800 26.260700
N 8.576350 13.099800 27.129100
N 7.318130 13.548800 26.366700
N 8.085530 14.113400 27.704800
N 6.227690 12.809300 28.712300
N 7.204210 11.930200 29.239800
N 6.193590 11.869800 28.590900
N 9.136880 12.202700 28.533900
N 9.105790 13.136200 28.806000
N 8.254790 12.004900 28.000900
N 8.307200 12.983200 28.073000
N 9.782820 12.372000 29.260400
N 7.106830 14.479600 28.069200
N 6.618060 13.430300 29.339400
N 6.414560 13.754900 28.176000
N 8.514340 13.860900 28.546600
N 9.509520 14.226600 29.214200
N 9.909740 13.436600 29.439100
N 11.328000 13.280000 29.446900
N 7.300020 15.151300 28.678400
N 8.754360 16.349600 29.186000
N 9.469690 15.145700 29.485400
N 6.636250 12.714000 30.122000
N 7.195390 12.576900 30.864300
N 7.710800 12.338600 29.953500
N 8.466550 12.171700 30.536000
N 9.243290 12.349000 31.099500
N 8.608770 13.188600 30.983000
N 10.830900 12.517000 29.704400
N 11.225000 13.155700 31.232600
N 10.279100 11.662400 29.649800
N 7.478730 13.458000 29.845800
N 7.284160 14.442300 30.115300
N 8.001360 13.957500 30.507000
N 9.949830 14.898400 30.934800
N 10.608000 13.614800 30.191000
N 10.213000 14.482600 30.121600
N 10.786800 14.038500 31.306500
N 7.416450 15.251200 29.638700
N 8.409930 16.763200 30.879500
N 8.110000 16.379000 29.988800
N 6.722930 12.957200 33.017500
N 6.590780 13.178200 31.658700
N 7.163170 12.594200 32.168000
N 8.444230 11.509500 31.447800
N 7.927360 12.339000 32.660800
N 7.928790 12.378800 31.411900
N 9.476930 13.122400 31.584100
N 11.270100 12.579000 31.961600
N 10.430900 12.082300 31.708300
N 7.748330 14.695300 33.095200
N 6.903680 14.918200 32.679900
N 8.669000 14.195400 33.109300
N 9.013680 13.975200 31.370300
N 9.388050 14.556200 32.547700
N 9.962510 14.427400 31.806500
N 7.922270 16.648000 31.732600
N 9.739560 15.414800 32.461400
N 10.912600 16.054400 32.507700
N 9.746170 16.380600 32.369500
N 7.229200 18.004200 1.727360
N 6.400910 18.240400 2.139210
N 8.115540 17.821200 1.612450
N 8.821240 17.033500 2.275230
N 10.202500 16.983000 1.112040
N 10.473600 17.685600 1.669050
N 10.370800 18.634900 1.491510
N 8.176630 18.721000 1.958750
N 9.307950 19.743600 0.779617
N 9.084250 20.200100 1.637190
N 9.779460 19.369800 1.486870
N 10.745800 19.652300 1.918610
N 9.173500 21.134300 1.521170
N 8.906540 21.930600 2.009490
N 8.027900 22.045300 1.637700
N 6.518820 17.716000 3.921090
N 8.823190 17.944100 2.532150
N 8.904300 18.376100 3.351040
N 9.481920 17.516600 3.493290
N 8.525330 17.310800 3.433500
N 9.928650 17.952500 4.215060
N 11.176300 17.206400 2.539190
N 10.555100 18.655400 3.964530
N 6.124260 19.252900 2.531270
N 8.816860 19.206200 2.598770
N 9.486930 19.143100 3.267560
N 10.559900 19.260600 2.755020
N 10.974600 19.528400 3.630690
N 8.114460 17.122000 4.507760
N 8.711900 17.800500 4.239170
N 8.482420 17.613000 5.263310
N 9.073240 17.364800 6.115930
N 9.783030 18.006200 6.222890
N 10.879300 17.882000 7.375410
N 10.794700 18.407700 6.613030
N 9.631440 18.954600 6.413440
N 10.540300 19.342500 6.482500
N 8.013460 19.803400 26.981900
N 8.331440 20.655600 27.330300
N 8.051670 17.830400 28.161600
N 8.301060 17.152200 28.727800
N 7.906460 19.630800 27.943500
N 9.610190 20.474300 28.484100
N 8.317270 18.755100 27.899000
N 8.920100 20.972900 28.035400
N 8.875940 16.991300 29.841700
N 6.642320 19.757200 30.873000
N 6.245050 17.820200 32.527200
N 6.907900 18.452200 32.293500
N 8.401730 17.460900 31.824100
N 9.246660 17.498100 32.248700
N 10.840500 17.014700 32.286000
N 10.089600 16.941900 31.688400
N 9.688410 17.601000 33.103600
N 7.259290 19.219300 31.783500
N 6.793000 20.129700 31.718500
N 10.491200 20.471900 32.412000
N 11.037200 19.759500 32.045500
N 10.574800 21.447900 32.318500
N 8.273020 22.966900 1.347970
N 9.060420 22.573900 0.993415
N 6.149190 22.797400 30.789000
N 8.954590 23.272400 32.863500
N 9.162810 24.031500 32.313900
N 9.631560 24.354400 33.097900
N 13.475700 2.069640 2.385540
N 12.975700 3.883040 2.382000
N 12.292900 5.359370 1.066500
N 12.504500 4.260770 1.580500
N 11.711400 5.061090 1.712710
N 11.946100 4.422910 2.382900
N 12.561700 2.131040 2.568850
N 14.333600 2.153610 2.744350
N 11.810500 2.676480 2.596500
N 12.594000 3.159280 2.881020
N 12.831500 3.354140 3.998700
N 13.313000 4.152590 4.174010
N 13.514700 3.899070 3.294260
N 14.965700 2.834360 2.588320
N 16.780100 3.667850 3.692210
N 15.674100 3.492170 2.870900
N 16.606800 3.583280 2.734960
N 12.409500 5.395890 3.613010
N 12.476500 4.432580 3.645450
N 11.820700 5.327540 2.801870
N 11.547100 5.954840 3.794830
N 13.887400 4.515940 2.618380
N 13.941700 5.478600 2.636170
N 14.443600 5.651340 3.399960
N 14.342200 4.517620 3.772330
N 15.091800 4.629470 3.191500
N 15.653000 5.402190 3.103300
N 15.342200 5.704520 3.963460
N 12.317800 3.881050 4.584300
N 12.244500 4.785830 4.505890
N 12.958200 5.537250 4.377420
N 14.450500 5.090330 5.336080
N 13.446100 5.644680 5.296790
N 13.447800 4.395970 5.205070
N 14.236500 4.284690 4.643330
N 14.979300 5.031550 4.583590
N 15.267200 5.870990 5.347470
N 12.622700 2.890680 7.310990
N 13.859600 5.404740 6.093860
N 12.247200 2.865790 8.222230
N 11.582200 4.092940 9.041710
N 11.611300 5.656520 7.896960
N 11.728000 4.757520 9.726210
N 11.670700 4.883570 10.664000
N 14.894100 5.729320 11.363900
N 13.853800 5.881210 11.342800
N 13.460400 5.860620 10.493800
N 13.145300 7.258720 1.565610
N 12.527400 7.397910 0.757588
N 11.689100 6.136740 0.937013
N 12.887300 6.089090 1.087840
N 13.799300 7.285370 2.405850
N 14.230100 7.798390 1.503300
N 14.680600 7.147400 2.014790
N 13.931400 6.763260 1.287100
N 14.484800 6.140150 1.930020
N 13.467600 6.137880 1.915450
N 12.017500 8.794540 1.499160
N 12.965600 8.349030 0.989944
N 11.994000 9.543440 2.083780
N 13.259000 9.402710 2.265570
N 13.064700 9.212290 1.340400
N 11.482100 8.416720 2.333790
N 11.674000 8.026730 1.073460
N 13.451300 8.181210 1.780860
N 14.368100 8.865020 1.649300
N 14.549200 9.345250 0.845347
N 14.007900 10.319800 0.679522
N 14.011400 9.891760 1.623000
N 13.631700 10.273400 2.414800
N 15.684300 9.974710 0.760092
N 16.490000 10.503900 0.701050
N 11.714700 7.179190 2.527800
N 12.618500 6.341450 3.967290
N 12.243000 7.199270 3.479840
N 11.921000 6.289280 2.893550
N 15.011600 6.378910 2.732470
N 14.707900 6.521110 3.681070
N 14.531300 7.333840 3.002130
N 14.021800 6.465030 2.835040
N 14.796300 7.460600 4.058910
N 12.142300 9.318060 3.178730
N 12.133800 8.137540 3.204010
N 12.661900 8.422410 3.984910
N 12.408900 9.457920 4.131230
N 14.302500 9.155980 3.263070
N 14.748100 8.675850 2.450690
N 13.862100 8.481530 2.677060
N 14.455600 8.202020 3.540150
N 15.366600 8.048120 3.257120
N 15.620100 8.109550 4.225700
N 12.799700 10.033900 3.053040
N 13.243900 9.852630 3.951610
N 14.731900 9.793550 3.849940
N 11.570700 6.405430 5.638020
N 12.775000 7.284870 4.293080
N 11.862300 6.898910 4.681610
N 12.370000 6.991790 5.463570
N 13.178500 6.479910 4.935530
N 12.131600 6.059440 4.948270
N 13.975300 7.809550 5.791870
N 13.363800 7.423030 5.065850
N 13.799000 6.482340 5.794180
N 16.096100 6.339130 5.384540
N 15.366900 6.479370 4.616640
N 15.402600 7.171580 5.382240
N 12.382200 9.193880 5.041480
N 13.073300 8.296220 4.799780
N 14.865800 8.976210 4.318440
N 14.196300 9.362330 4.859020
N 13.685200 8.730270 5.509590
N 13.285300 9.430080 4.892930
N 14.704900 8.648580 5.571740
N 15.097800 9.480270 5.756950
N 15.217900 8.093230 5.049590
N 12.785500 9.928560 5.745730
N 11.802000 6.754290 6.511980
N 11.685200 7.637790 7.093320
N 11.727200 6.622670 7.568050
N 12.898200 6.730420 6.211910
N 14.888600 7.551980 6.053080
N 14.596300 6.388940 6.345020
N 15.511200 6.438660 6.174770
N 13.858000 8.233040 7.268790
N 14.135100 9.075800 7.775170
N 13.624800 8.562310 6.385790
N 12.095400 10.277500 6.418990
N 11.504300 11.031800 6.072260
N 12.462200 6.345990 8.152350
N 11.909800 6.734830 9.047620
N 13.021000 7.019910 9.121650
N 12.284400 7.352220 8.414700
N 13.061300 6.189110 9.652170
N 12.119800 8.973020 8.095040
N 12.430800 8.302140 8.643890
N 12.084900 8.599940 9.435940
N 13.454100 8.471610 8.099990
N 12.444800 11.110700 9.426140
N 12.725200 7.112010 10.017500
N 11.899100 7.457600 9.703610
N 11.487700 8.858140 11.169900
N 11.648800 8.433610 10.321100
N 11.904200 9.296280 10.052400
N 11.776600 10.514400 9.869410
N 12.473200 11.204800 11.322200
N 12.627400 11.134200 10.375300
N 14.470400 6.618880 11.564500
N 12.839800 9.947360 31.041400
N 12.322600 6.538080 32.826300
N 15.261000 9.447010 32.634200
N 12.356300 9.681090 31.864200
N 13.366700 10.200400 31.758800
N 13.636700 10.771900 32.490000
N 14.742200 10.223700 32.598000
N 12.781400 14.715200 1.153510
N 11.718300 14.588100 1.352920
N 12.743100 15.384900 1.816790
N 11.794700 15.449100 1.960600
N 14.163400 16.539100 0.969159
N 14.860000 16.614400 1.577950
N 15.753100 16.876300 1.438970
N 12.138200 14.772000 3.539180
N 13.451100 15.007200 2.869560
N 14.291900 14.748200 2.490510
N 14.556900 15.019600 3.374920
N 12.878200 15.352100 3.628890
N 14.176100 16.852000 3.658530
N 14.107900 15.898500 3.358340
N 11.772200 16.516600 4.447680
N 13.108100 11.867300 11.578300
N 13.908000 12.783900 12.283200
N 14.347600 12.496500 11.506400
N 13.300800 12.068300 12.469400
N 14.752500 12.129500 12.241800
N 15.944400 12.019400 12.317500
N 15.392700 11.821800 11.571100
N 11.979100 12.842500 27.711000
N 12.448000 13.316900 27.027600
N 12.905300 14.152400 26.950300
N 13.444500 14.966100 27.088800
N 11.745600 13.058000 28.591400
N 14.313300 16.003000 29.208000
N 14.240000 16.026100 28.246400
N 13.450600 15.563500 27.882100
N 14.021800 13.159500 32.319800
N 13.437500 13.262700 31.524900
N 14.961300 13.176300 32.210100
N 11.668800 14.080300 31.615600
N 12.798900 14.889200 32.799100
N 11.491100 13.503200 32.377500
N 12.437100 13.293400 32.081300
N 13.191000 13.815800 32.333100
N 16.881200 14.738500 31.574700
N 15.120800 14.338200 31.417300
N 15.593500 13.463400 31.559800
N 15.914200 14.915800 31.643200
N 12.861500 15.707000 32.284600
N 13.130400 16.563300 32.546500
N 14.556400 15.478100 32.947200
N 14.256800 16.236800 32.463100
N 16.121000 16.547800 33.134600
N 15.434100 15.873500 33.125700
N 12.405100 19.604900 1.082990
N 12.287300 20.140400 2.247780
N 11.616200 19.461500 2.316470
N 11.678600 20.107000 1.469810
N 14.452500 19.112400 0.766841
N 14.090400 18.973400 1.666710
N 11.625400 17.872400 3.094320
N 11.585000 17.304100 3.873980
N 13.259500 17.438200 3.564450
N 13.230700 18.087000 2.868480
N 14.041800 18.420500 2.488290
N 13.879900 17.264300 2.836530
N 11.641500 17.377400 7.098770
N 14.505200 19.395700 27.605400
N 14.363900 20.324800 27.601400
N 14.704800 19.246900 26.348900
N 15.551700 19.344100 26.834000
N 15.274100 20.202200 26.586000
N 15.021600 20.919100 27.244000
N 13.132500 17.641900 28.637700
N 13.137900 18.543900 28.840500
N 14.068100 16.908300 29.010700
N 13.685900 17.640100 29.457100
N 14.384700 19.650000 28.537900
N 13.524800 20.026600 29.335400
N 13.423200 19.558000 28.520000
N 12.153200 18.565500 31.282600
N 13.076800 19.163300 29.592100
N 13.576700 19.556800 31.323200
N 13.807400 21.371200 31.045800
N 13.402100 20.533000 31.291000
N 11.736500 18.245900 32.133100
N 13.601700 17.203700 33.098100
N 11.520300 19.234700 31.452400
N 12.124700 19.041200 32.539600
N 12.742700 19.691600 32.711200
N 13.095400 19.053700 31.979400
N 13.846100 18.983500 32.575800
N 13.378500 21.812300 31.782100
N 19.364700 5.692880 1.063070
N 19.636800 5.994480 1.875920
N 18.002000 4.068090 3.685840
N 17.662300 5.909710 3.951890
N 17.658900 4.995880 3.704170
N 17.487300 3.519010 4.284640
N 19.899100 5.362300 32.877500
N 18.367200 6.513720 4.120980
N 17.616600 6.930320 3.705920
N 18.262400 6.593090 3.044340
N 18.914000 6.105480 2.503730
N 20.001500 6.164650 32.426700