950
Atoms. Timestep: 0
H 4.352340 4.141820 1.765860
H 1.652990 5.188830 2.050240
H 1.185920 5.251010 0.904034
H 2.285020 4.879580 1.339720
H 0.738927 5.509030 1.801450
H 3.831120 4.250140 0.877983
H 3.199090 4.559390 1.588500
H 2.567060 4.868640 2.299020
H 4.395190 4.228250 2.796600
H 2.162920 5.213090 4.227170
H 1.303000 5.487140 3.720060
H 0.781781 5.595460 2.832190
H 1.935030 5.177890 3.009540
H 3.481120 4.548450 2.547810
H 2.849090 4.857690 3.258330
H 3.131130 4.846750 4.217640
H 3.948200 4.486270 3.694010
H 2.002990 4.890530 32.931500
H 2.971200 4.524190 32.921900
H 2.265110 7.814180 0.812793
H 2.252160 7.831400 0.800957
H 3.468270 7.467360 1.979240
H 3.501370 7.460820 1.973230
H 3.162020 7.483870 1.027470
H 3.180880 7.473890 1.026100
H 4.096650 7.133600 1.239400
H 4.071880 7.136330 1.253980
H 2.558410 7.814900 1.752730
H 2.585600 7.801120 1.759920
H 4.981740 6.788790 1.480490
H 5.012420 6.793300 1.452710
H 4.608390 7.065870 2.366050
H 4.566260 7.063510 2.388030
H 1.414420 8.267420 1.603380
H 1.436070 8.244680 1.627140
H 5.775130 9.381270 1.591670
H 3.202220 10.554100 1.655880
H 4.047930 10.220200 2.150880
H 3.804280 10.209100 0.935844
H 2.679150 10.703100 0.775016
H 4.698010 9.827540 1.171590
H 4.989680 9.790930 2.127380
H 3.821860 7.447760 2.920360
H 3.774520 7.450860 2.931010
H 2.863580 7.836650 2.967090
H 2.818660 7.847060 2.963940
H 1.990320 8.128350 2.493740
H 1.954800 8.145940 2.477990
H 5.610470 9.174220 31.326800
H 4.764760 9.508100 30.831800
H 3.823010 9.937380 30.855300
H 3.498190 7.111120 31.636200
H 3.505370 7.120670 31.642000
H 3.776160 7.146660 32.843300
H 3.765620 7.152830 32.853300
H 2.539900 7.500020 31.682900
H 2.549510 7.516870 31.675000
H 2.855760 7.500370 32.626700
H 2.860390 7.486950 32.630000
H 4.371450 6.819430 32.109500
H 4.369230 6.821790 32.128000
H 4.925700 6.703100 32.976100
H 4.909620 6.700310 33.002600
H 1.349340 8.154470 33.150500
H 1.757770 7.904220 32.218000
H 1.753370 7.881910 32.237200
H 1.342300 8.178940 33.125500
H 5.300080 9.482570 33.002600
H 5.008410 9.519190 32.046800
H 2.618890 10.627300 32.295400
H 4.114680 9.900770 31.811100
H 3.037570 10.347000 31.391000
H 3.512620 10.245700 32.531100
H 4.406350 9.864160 32.766900
H 5.145220 12.774600 0.854558
H 3.880170 13.208800 30.913500
H 4.341630 12.903400 30.038600
H 5.141810 12.458900 29.555000
H 4.973700 12.644000 30.768700
H 5.836040 12.189600 30.545600
H 4.344120 13.134500 32.857500
H 5.605770 12.384600 31.498900
H 5.375490 12.579600 32.452300
H 4.743420 12.839000 31.722100
H 3.881080 13.293400 31.945300
H 6.193810 9.100990 0.687302
H 9.561030 6.208250 7.521390
H 8.643020 6.264960 7.660470
H 8.539330 6.296300 7.663160
H 9.669680 6.202040 7.543230
H 10.621100 6.534960 7.779280
H 10.525900 6.514590 7.737940
H 7.410780 7.409320 8.742940
H 7.362380 7.461830 8.783910
H 7.734570 6.755140 8.125280
H 7.816210 6.706850 8.099600
H 8.541760 7.217640 8.491980
H 8.602520 7.193090 8.480670
H 9.455000 6.944190 8.190030
H 9.529260 6.940680 8.202490
H 9.348960 7.680130 8.858680
H 9.388840 7.679330 8.861750
H 11.175400 7.133240 8.254790
H 11.242300 7.174520 8.305380
H 10.262200 7.406680 8.556730
H 10.315600 7.426920 8.583560
H 7.535360 8.184140 9.418120
H 7.522500 8.227020 9.462570
H 8.435730 7.953570 9.160620
H 8.462100 7.931730 9.139930
H 9.242930 8.416070 9.527320
H 9.248420 8.417970 9.521010
H 11.335500 7.898420 8.933450
H 10.156200 8.142620 9.225380
H 10.175200 8.165560 9.242820
H 10.963400 8.605120 9.592080
H 10.961500 8.651800 9.623900
H 11.366900 7.949330 8.980550
H 9.136890 9.152010 10.196000
H 8.172010 8.845660 9.979420
H 8.156590 8.823690 9.944220
H 9.107990 9.156610 10.180300
H 10.158600 9.063960 10.054200
H 10.134700 9.093700 10.063000
H 7.688820 11.223500 28.423300
H 8.391910 10.624700 28.891000
H 9.187520 10.519700 29.545000
H 9.862490 10.936800 30.210000
H 6.133540 9.025210 32.207600
H 6.069720 12.310300 0.891817
H 9.314650 15.028900 0.841956
H 9.900500 14.693500 1.626860
H 9.156090 16.734500 1.097740
H 9.516030 15.846000 1.382080
H 9.717400 16.663100 1.922210
H 10.077300 15.774500 2.206550
H 10.437300 14.886000 2.490900
H 10.278700 16.591600 2.746680
H 10.781200 15.554500 3.202560
H 10.840000 16.520200 3.571150
H 7.266670 12.155800 28.267100
H 7.238550 13.171700 28.464400
H 7.987900 12.819800 29.025300
H 8.213040 11.845700 29.004700
H 7.612010 13.999000 28.962200
H 6.867410 11.634700 30.140400
H 6.468110 11.930200 31.275700
H 6.066310 11.994500 29.592200
H 7.330450 11.475800 31.052500
H 8.737250 12.467900 29.586100
H 9.261460 13.090000 30.167500
H 9.486600 12.116000 30.147000
H 8.962380 11.493800 29.565600
H 10.207800 12.779900 30.905100
H 10.235900 11.764000 30.707800
H 8.512110 13.442000 29.606700
H 8.286970 14.416000 29.627200
H 9.082590 14.311100 30.281200
H 9.785670 13.712200 30.749000
H 6.237830 12.125200 32.229100
H 7.331360 11.560400 32.084300
H 6.869900 11.865800 32.959200
H 8.594770 16.806000 32.824300
H 8.836720 15.802100 32.897600
H 9.357460 17.551600 1.637860
H 8.997520 18.440200 1.353520
H 9.534310 18.632600 2.217560
H 8.653630 17.771600 0.641855
H 9.918780 17.480200 2.462330
H 10.598100 17.524100 3.497910
H 10.120200 18.297300 3.002460
H 12.419500 5.824800 1.949040
H 12.456700 5.814500 2.020260
H 12.854900 5.151240 2.603640
H 12.901200 5.155010 2.683020
H 13.392300 5.978090 3.468580
H 13.408600 4.960900 3.457380
H 13.459300 4.982760 3.537740
H 13.981500 5.343910 4.355400
H 13.932300 5.304770 4.281500
H 12.245000 6.784520 1.727050
H 12.219100 6.801100 1.668990
H 12.322700 7.805150 1.881960
H 12.307500 7.818540 1.838510
H 12.660900 8.604490 2.412200
H 12.824000 7.389280 2.640700
H 12.757900 6.877870 2.507920
H 12.891000 6.393960 2.709850
H 12.978800 7.779560 2.879520
H 13.075700 6.052940 2.975240
H 13.296600 6.954630 3.346850
H 13.325300 6.973410 3.399430
H 13.614500 6.129700 3.814170
H 13.826600 6.557540 4.158170
H 13.835400 7.031400 4.185780
H 13.759700 7.552860 4.089020
H 12.669100 8.602910 2.443470
H 13.184700 8.948370 3.236320
H 13.191400 8.964060 3.261130
H 13.258400 7.968730 3.330280
H 13.517500 7.856330 3.718450
H 13.749500 8.791810 4.115850
H 13.738400 8.758030 4.090060
H 14.285700 6.090730 4.855180
H 14.327900 6.141670 4.916910
H 14.405700 7.162300 5.071810
H 14.374100 7.108170 5.024710
H 14.173800 8.084470 4.744650
H 14.194000 8.132320 4.778600
H 3.049400 7.158580 11.455800
H 3.235940 8.880490 11.461100
H 2.723590 7.946300 10.902400
H 2.652450 7.939600 10.904300
H 2.585990 8.953230 10.704700
H 2.659540 8.958200 10.693400
H 3.287170 8.893370 11.469200
H 2.931830 9.935360 10.900200
H 2.867840 9.927890 10.910400
H 3.422480 10.602400 11.466400
H 3.467510 10.616000 11.467300
H 0.692958 6.947650 12.989000
H 3.706560 6.839480 12.247200
H 3.670500 6.819460 12.211400
H 3.106820 7.170790 11.471200
H 4.362090 7.041130 13.022700
H 4.349300 7.013110 12.968700
H 0.845491 8.671030 12.908500
H 1.242630 9.522230 13.251500
H 4.138450 7.934840 12.633800
H 3.467650 7.983170 11.836700
H 3.885890 8.807760 12.217600
H 3.914800 8.828540 12.245000
H 3.510810 7.999670 11.858100
H 4.117600 7.910430 12.593100
H 4.542440 8.763710 13.020700
H 4.535840 8.735020 12.974000
H 4.304140 9.632340 12.598400
H 4.318790 9.657420 12.631900
H 0.998023 10.394400 12.828000
H 3.691160 9.722250 11.856100
H 3.654190 9.705080 11.842000
H 4.123050 10.817600 12.242700
H 4.101290 10.796000 12.223700
H 4.722380 10.456900 12.979300
H 4.722780 10.486300 13.018800
H 1.976460 6.905670 14.522100
H 1.311110 6.660050 13.768000
H 1.731850 7.777860 14.098600
H 1.090100 7.798850 13.332000
H 2.510720 7.618700 15.049300
H 4.897770 7.721720 13.589800
H 4.903940 7.687620 13.524700
H 1.487240 8.650040 13.675000
H 2.128990 8.629060 14.441600
H 1.884380 9.501240 14.018100
H 2.686850 9.608690 14.956300
H 5.185790 8.662280 13.730400
H 5.170070 8.698880 13.796500
H 1.663370 10.640000 13.582100
H 2.281530 10.352400 14.361100
H 5.106020 9.710780 13.587500
H 5.119340 9.675920 13.530800
H 0.714800 9.478290 16.870300
H 0.731812 9.519910 16.842100
H 2.770740 8.608070 15.208200
H 0.724931 8.473530 17.119500
H 0.753223 8.519200 17.106400
H 32.838700 7.691400 12.393800
H 32.754800 8.692020 12.141900
H 33.014800 9.681390 12.300800
H 31.072900 6.975220 14.953100
H 31.072600 6.978200 14.904000
H 30.706300 7.737070 14.355700
H 30.721600 7.751630 14.312100
H 30.684900 8.737770 14.091400
H 30.711400 8.756400 14.063000
H 31.339800 8.683130 14.845100
H 31.352600 8.685680 14.827100
H 31.014400 9.709190 14.231000
H 31.044900 9.723260 14.223300
H 31.632600 10.393200 14.750200
H 31.606600 10.391000 14.737100
H 31.686500 6.656370 15.723600
H 31.670400 6.643340 15.680000
H 32.382600 6.865940 16.460600
H 32.354800 6.836770 16.432300
H 32.174300 7.725870 16.011700
H 32.188600 7.747210 16.029800
H 31.533800 7.801860 15.276000
H 31.533100 7.796580 15.247600
H 31.800600 9.509760 15.168000
H 32.455400 9.455120 15.921800
H 32.454300 9.433340 15.934800
H 31.994600 8.628490 15.598900
H 31.993700 8.614960 15.591200
H 32.634800 8.544250 16.355300
H 32.649400 8.573850 16.352600
H 31.813100 9.504060 15.170700
H 32.302700 10.600600 15.474200
H 32.916300 10.281800 16.244600
H 32.317000 10.586600 15.502400
H 32.914800 10.251700 16.278400
H 32.974800 7.547780 16.966800
H 32.942500 7.506670 16.959100
H 27.534300 1.097250 29.241400
H 23.200200 10.880700 16.179500
H 23.203300 10.878800 16.139600
H 23.302000 10.719800 17.157800
H 23.345400 11.105600 18.161400
H 23.364200 11.092700 18.121500
H 23.288600 10.727300 17.199500
H 24.081300 11.164100 22.120400
H 24.141400 11.295900 21.095400
H 27.092500 7.678370 22.547000
H 27.102200 7.712190 22.533900
H 25.701600 9.041000 23.055700
H 25.696700 9.007270 23.081300
H 26.444000 9.240220 24.027800
H 26.452800 9.213880 24.041200
H 26.788300 8.518470 23.405700
H 26.787300 8.547860 23.393200
H 26.250500 8.278520 22.597600
H 26.260900 8.313910 22.575800
H 27.661600 8.063020 23.578500
H 27.657000 8.089440 23.575900
H 25.579500 9.669330 23.868500
H 25.574300 9.698640 23.845100
H 27.313800 8.781810 24.210500
H 27.326100 8.758420 24.213900
H 26.970500 9.474170 24.845100
H 26.990600 9.453830 24.849400
H 25.913100 10.110600 24.732300
H 25.930300 10.087300 24.748200
H 27.559700 9.838480 25.880800
H 27.525300 9.851420 25.887100
H 26.627200 10.166500 25.479700
H 26.655100 10.149200 25.484800
H 24.370500 7.493740 26.492100
H 24.302900 7.502980 26.501600
H 25.205500 6.882610 26.457900
H 25.133400 6.886210 26.461600
H 25.258400 7.343760 27.343600
H 25.196100 7.347650 27.346500
H 25.997500 6.516720 26.895800
H 26.068700 6.518610 26.898300
H 26.663700 6.493520 27.687900
H 26.729100 6.499280 27.695300
H 23.787700 8.188250 26.991800
H 23.728600 8.201780 27.005200
H 24.549500 7.996580 27.610500
H 24.493700 8.005440 27.618300
H 25.311400 7.804920 28.229300
H 25.258900 7.809100 28.231400
H 26.024000 7.612750 28.844600
H 26.073200 7.613250 28.848000
H 26.789100 7.416410 29.457700
H 26.835000 7.421580 29.466700
H 26.953500 6.822830 28.625600
H 27.009600 6.829790 28.635500
H 26.020200 7.152100 27.962300
H 25.961300 7.151310 27.959700
H 23.854000 9.124670 28.775000
H 23.893600 9.110560 28.763200
H 23.613200 8.780050 27.823100
H 23.564300 8.795360 27.837300
H 24.602500 8.457740 28.496200
H 24.556400 8.466880 28.503200
H 25.321600 8.270540 29.116300
H 25.364300 8.266070 29.115000
H 24.554000 9.091220 29.560300
H 24.520200 9.101470 29.567100
H 25.384300 8.731990 30.001300
H 25.417300 8.727220 30.000700
H 26.214800 8.115210 29.961200
H 26.252200 8.116090 29.966400
H 23.025800 12.487000 15.000900
H 23.004900 12.490800 14.972700
H 25.768400 12.304900 15.055900
H 25.731200 13.275500 14.697800
H 25.729000 14.296000 14.872100
H 23.185600 11.796300 16.581200
H 23.184600 11.791800 16.547100
H 23.098300 12.599500 15.991900
H 23.085400 12.597800 15.963600
H 23.094500 11.527000 15.339800
H 23.104000 11.524800 15.374800
H 25.830500 11.644200 15.850500
H 25.846000 12.552900 16.267700
H 25.900900 11.470500 16.868600
H 23.053300 14.696600 16.766200
H 23.029700 14.689700 16.751400
H 22.986400 13.509500 15.158100
H 22.958400 13.512000 15.136600
H 23.083700 13.515100 16.393600
H 23.066700 13.510800 16.371200
H 22.967500 14.316800 15.787700
H 22.996400 14.318300 15.804300
H 25.861600 13.461500 16.684800
H 25.796400 13.368500 15.691300
H 25.811900 14.277200 16.108400
H 25.822200 15.452600 16.500900
H 25.762300 15.092800 15.532100
H 23.258200 11.908800 17.572200
H 23.265000 11.898700 17.538100
H 23.246300 12.811700 17.945600
H 23.243500 12.824400 17.973800
H 23.170900 12.712000 16.982900
H 23.165900 12.704800 16.954600
H 25.911200 12.645900 17.261100
H 25.994100 12.627100 18.497500
H 25.960800 11.830200 17.837500
H 23.147200 13.617700 17.362100
H 23.156300 13.627600 17.384500
H 23.141600 14.543200 17.786200
H 23.128500 14.530700 17.769600
H 23.237200 13.882500 18.569400
H 23.237800 13.899100 18.590900
H 25.926800 13.554600 17.678300
H 25.877100 14.370200 17.101900
H 25.991900 13.647600 18.671800
H 25.954800 14.618200 18.313700
H 25.892700 15.278900 17.519100
H 23.373300 11.897600 18.772600
H 23.355500 11.914400 18.807600
H 23.326800 12.918700 18.936600
H 23.316100 12.936900 18.964800
H 24.773300 12.763700 19.892900
H 24.394700 11.881400 20.280000
H 25.175800 13.706500 20.037700
H 24.862400 12.989200 21.878100
H 24.501900 12.142500 21.486700
H 24.817900 12.876500 20.885500
H 25.494300 14.457000 20.675600
H 25.178400 13.723100 21.276900
H 25.643600 14.814200 21.635700
H 25.223000 13.835800 22.269400
H 24.549100 12.271900 23.718500
H 24.907000 13.101900 22.870700
H 24.546500 12.255300 22.479300
H 24.230600 11.521300 23.080600
H 24.951600 13.214600 23.863300
H 25.583500 14.682400 22.660800
H 25.330200 14.096900 23.476100
H 27.461700 27.826300 23.448400
H 27.538500 28.749800 22.986800
H 27.626900 32.932200 28.499500
H 30.753000 0.927785 27.111000
H 29.661200 0.834976 27.689900
H 31.144000 1.728430 27.638100
H 29.339200 1.412840 28.439700
H 28.436700 1.255050 28.840600
H 28.758700 0.677181 28.090700
H 29.017200 1.990710 29.189600
H 29.919600 2.148500 28.788800
H 30.241600 1.570640 28.038900
H 31.051400 2.444520 28.380000
H 30.500000 2.884160 29.137800
H 27.925300 1.897900 29.768500
H 28.695200 2.568570 29.939500
H 29.637600 2.929570 29.708700
H 27.997100 7.367610 22.943000
H 28.000300 7.397080 22.941300
H 28.714400 7.453000 23.688700
H 28.721900 7.429520 23.679600
H 29.072700 7.847510 24.559400
H 27.840200 9.015760 25.027900
H 27.863900 8.998370 25.022100
H 28.183500 8.323390 24.393200
H 28.199400 8.302970 24.386600
H 29.053200 7.864980 24.576000
H 28.955500 8.509580 25.346600
H 28.925900 8.522620 25.365300
H 28.401700 9.238320 25.830200
H 28.366700 9.249710 25.845200
H 27.811200 27.136000 24.136100
H 28.493400 26.863600 24.865600
H 29.325500 27.082200 25.441400
H 30.084500 27.733300 25.709300
H 28.257300 28.261200 23.870300
H 28.537000 29.177400 23.583500
H 28.021100 29.658800 22.874900
H 28.780200 30.309800 23.142700
H 29.332500 29.612200 24.005300
H 29.612200 30.528500 23.718600
H 29.052800 28.696000 24.292100
H 28.773100 27.779800 24.578900
H 29.568700 28.214600 25.000700
H 30.567100 28.642300 25.597400
H 29.848400 29.130900 24.713900
H 30.294400 30.256100 24.448000
H 30.643900 29.565700 25.135800
H 29.040700 32.447200 27.170800
H 28.178300 32.492600 27.741600
H 29.983200 32.808200 26.940000
H 6.912930 1.208150 27.862800
H 6.848500 0.845744 29.046100
H 6.548610 1.727090 28.681100
H 10.587300 5.850720 28.393400
H 10.573200 5.859540 28.394900
H 11.061600 5.064450 28.871600
H 11.064600 5.082070 28.870100
H 6.344990 1.773720 29.695100
H 6.356650 1.335540 30.632900
H 6.752530 0.649970 30.022000
H 11.161300 7.635600 27.697400
H 11.113700 7.647730 27.680800
H 10.623800 6.791820 27.963700
H 10.591100 6.798640 27.959600
H 7.340350 32.907000 27.459300
H 7.716330 31.949900 27.578800
H 7.951800 30.706100 29.127200
H 7.940140 31.144300 28.189300
H 7.544270 31.829900 28.800200
H 7.244370 32.711200 28.435200
H 7.148400 32.515400 29.411100
H 7.383860 31.271700 30.959500
H 7.748190 30.752800 30.141100
H 6.580460 33.081000 31.243400
H 7.448290 31.634100 29.776100
H 7.052420 32.319700 30.387000
H 6.956440 32.123900 31.362900
H 12.263400 3.647850 25.704800
H 12.252600 3.632090 25.661500
H 13.157100 4.096080 25.723400
H 13.460500 3.749340 25.912700
H 12.106000 4.577060 25.276400
H 12.089800 4.559120 25.230400
H 12.446800 5.483210 24.929900
H 12.469800 5.497490 24.972700
H 13.059700 4.553640 25.474000
H 13.260300 5.020900 25.357300
H 14.029500 4.548160 25.717600
H 14.050800 4.544300 25.741900
H 13.628700 5.352460 25.279000
H 14.154000 5.469120 25.375900
H 14.598500 5.346980 25.522600
H 14.944500 4.992530 25.760500
H 15.806400 5.464230 25.773700
H 15.838100 5.440750 25.779100
H 12.899600 2.958850 26.143200
H 12.891400 2.950520 26.107700
H 13.947600 3.619480 26.108000
H 13.835200 2.697030 26.449300
H 13.844300 2.694660 26.474000
H 14.430300 3.743860 26.156300
H 14.841200 4.067710 26.126600
H 14.844400 2.926090 26.608700
H 14.831100 2.939560 26.594900
H 15.631700 3.591110 26.511200
H 15.612200 3.613110 26.505400
H 14.999300 4.542680 25.961200
H 15.969100 4.537200 26.204800
H 15.995500 4.511540 26.207500
H 11.919500 4.643700 29.270000
H 11.933700 4.674550 29.257800
H 12.203900 5.568650 28.900700
H 11.777500 5.746510 28.722700
H 12.712300 5.564890 29.027900
H 13.154400 5.870250 28.975100
H 12.931200 4.701210 29.481800
H 12.947600 4.746180 29.454100
H 13.834700 5.277760 29.406500
H 13.825600 5.221560 29.450400
H 13.257200 6.162520 24.875200
H 13.227900 6.156760 24.840400
H 14.257200 6.393940 25.009800
H 14.223700 6.399280 24.986000
H 15.201900 6.129760 25.340700
H 15.167500 6.145800 25.327600
H 12.000700 8.179310 27.633100
H 12.055700 8.155960 27.666000
H 11.793900 7.055240 28.112200
H 12.274600 7.292270 28.120000
H 12.744400 7.356840 28.186600
H 12.493400 6.428580 28.573900
H 12.474200 6.462750 28.543600
H 11.558600 6.610200 28.268800
H 13.209400 7.110650 28.425100
H 11.523700 6.161140 28.469300
H 13.424700 6.764350 28.618000
H 14.375200 7.065950 28.692400
H 14.399600 7.006450 28.754400
H 13.883800 7.843420 28.217200
H 13.925300 7.792720 28.276200
H 13.428200 6.246960 28.879000
H 14.357200 6.126850 29.127700
H 14.363000 6.065340 29.184200
H 13.014600 8.250940 27.829500
H 13.067400 8.213470 27.877900
H 29.547100 16.733300 1.501960
H 28.474200 16.198700 1.187330
H 28.494700 16.197300 1.152220
H 28.510200 15.374600 1.780350
H 28.512100 15.382100 1.822490
H 29.351100 15.874400 1.987720
H 29.354200 15.890000 2.003510
H 31.032900 16.874000 2.402470
H 30.196400 16.397900 2.184530
H 30.192000 16.374200 2.195100
H 29.563000 16.720800 1.499310
H 29.001200 14.837700 2.554650
H 28.976400 14.819600 2.519610
H 29.768200 14.681300 3.171920
H 29.810600 14.711300 3.187640
H 30.673700 14.996500 3.562490
H 30.723300 15.036900 3.551850
H 29.980100 15.527700 2.683510
H 30.003500 15.554600 2.686090
H 30.845600 16.062500 2.867110
H 30.821000 16.027500 2.890880
H 31.450000 15.680900 3.586660
H 31.494900 15.727100 3.549690
H 31.889300 16.551000 3.237970
H 31.918500 16.597100 3.181740
H 28.897800 17.068700 0.819378
H 28.934000 17.067500 0.803529
H 29.669400 17.759000 0.817216
H 29.710400 17.751900 0.827707
H 30.403900 17.220600 1.706690
H 30.389200 17.241200 1.682980
H 30.582100 18.084500 1.181430
H 30.615800 18.067100 1.218280
H 31.038500 16.905800 2.365560
H 31.391500 17.958200 1.814420
H 31.407700 17.928700 1.870580
H 31.873800 17.373800 2.609840
H 31.880600 17.413700 2.546580
H 5.641650 25.811500 18.965900
H 5.637640 25.877100 18.955300
H 6.041140 26.944700 19.438200
H 5.137910 27.721300 19.279900
H 5.150770 26.721900 19.010300
H 5.148630 26.787600 19.015500
H 6.036350 27.387800 19.565400
H 5.606520 28.542000 19.702600
H 5.608380 28.594600 19.738800
H 5.137920 27.782300 19.302300
H 6.473900 25.294800 19.137700
H 6.479030 25.234100 19.158600
H 7.438520 25.144400 19.536900
H 7.433360 25.196700 19.513900
H 8.263040 25.566500 19.999200
H 8.258920 25.609000 19.983100
H 7.581340 27.675600 20.293400
H 6.288220 26.432900 19.408400
H 6.703780 26.198300 19.499300
H 6.933650 27.101800 19.860900
H 6.934780 27.054200 19.850900
H 7.186650 26.099300 19.693900
H 7.833210 26.720700 20.136400
H 7.596280 26.355400 19.922000
H 7.826160 27.258900 20.283600
H 8.729370 26.421300 20.419600
H 8.731640 26.387100 20.421900
H 8.718790 27.386600 20.691500
H 8.718670 27.416000 20.706300
H 6.682910 28.009100 20.007900
H 6.433940 29.007000 20.208000
H 6.431040 28.964000 20.165000
H 7.163520 28.005300 20.222600
H 6.271010 27.848200 19.799800
H 7.390530 28.874400 20.543200
H 7.393390 28.908800 20.584200
H 8.227900 28.297000 20.735900
H 8.229660 28.326500 20.766600
H 12.385200 26.713000 5.627850
H 12.340300 26.712600 5.620420
H 12.366000 26.714100 5.668690
H 13.009400 26.786500 4.860930
H 13.042100 26.778900 4.830450
H 12.997300 26.781200 4.823310
H 14.561700 26.334800 5.482430
H 14.999200 26.452100 4.579720
H 13.583900 26.489500 5.623630
H 13.558400 26.486100 5.596580
H 13.601700 26.477700 5.602540
H 14.965000 26.477000 4.578530
H 14.956800 26.467900 4.574820
H 14.580200 26.314400 5.477180
H 14.538200 26.329500 5.472340
H 13.998900 26.683400 4.446800
H 13.960700 26.699700 4.461900
H 13.955000 26.691600 4.440590
H 15.753100 26.178100 5.179550
H 15.774900 26.147000 5.193580
H 15.734300 26.170000 5.190030
H 14.732800 25.895500 7.149040
H 14.680800 25.895900 7.143120
H 14.720800 25.875500 7.146730
H 15.937300 25.640300 7.121410
H 15.950700 25.670900 7.103990
H 15.898900 25.669400 7.119280
H 16.118300 25.849900 6.123910
H 16.113900 25.883000 6.103930
H 16.079200 25.877800 6.121360
H 12.202800 26.502000 6.668740
H 12.204200 26.503300 6.625360
H 12.160000 26.504300 6.618340
H 12.563600 26.207000 7.593120
H 12.504900 26.212000 7.549680
H 12.547600 26.206200 7.555680
H 13.182700 26.340000 6.500000
H 13.180600 26.347300 6.527540
H 13.139800 26.347600 6.494100
H 13.701000 26.052600 7.267370
H 13.755000 26.050300 7.290240
H 13.742300 26.038800 7.272090
H 14.119600 26.191000 6.369850
H 14.161200 26.176600 6.374630
H 14.158300 26.192500 6.386340
H 15.099400 26.034400 6.245610
H 15.136100 26.037800 6.245140
H 15.139800 26.013200 6.249270
H 13.323300 25.901100 8.169550
H 13.282400 25.914100 8.164880
H 13.351700 25.908000 8.194150
H 14.356000 25.685300 8.310770
H 14.284200 25.690400 8.299110
H 14.323600 25.669800 8.302470
H 15.241900 25.600900 7.916390
H 15.280400 25.574300 7.918820
H 15.307300 25.598500 7.911740
H 21.733000 22.087600 16.477200
H 21.731800 22.118500 16.476200
H 21.595500 20.379200 18.465100
H 21.610400 20.384000 18.497700
H 20.339900 21.556900 18.654900
H 20.339900 21.549700 18.661200
H 21.901200 20.839400 17.631600
H 21.913500 20.832300 17.656800
H 20.643000 21.998000 17.820300
H 20.645500 22.017100 17.821400
H 21.429800 21.639300 17.318100
H 21.426200 21.658300 17.309700
H 21.126700 21.191000 18.159000
H 21.120500 21.198200 18.143300
H 20.509300 20.277800 19.810300
H 20.520500 20.294400 19.840700
H 22.094100 19.577000 18.836400
H 21.335200 19.741500 19.521000
H 21.316100 19.721100 19.477400
H 22.070500 19.560200 18.787000
H 19.559300 21.915700 19.166600
H 19.553100 21.908400 19.163400
H 19.866200 21.081100 19.696500
H 19.868200 21.087600 19.709800
H 20.823600 20.742700 18.999900
H 20.814900 20.738000 18.976800
H 20.139400 20.251000 22.156800
H 18.399100 17.778200 23.817500
H 18.374300 17.753200 23.816300
H 20.236400 17.629900 23.041500
H 19.215300 17.593100 23.208200
H 19.188800 17.562700 23.206400
H 20.209700 17.596100 23.037600
H 19.597600 18.007100 24.034200
H 20.084100 17.997300 23.944900
H 20.584400 18.149900 24.111200
H 21.163200 17.844600 23.354900
H 21.188800 17.878700 23.362100
H 21.817200 18.272800 24.084200
H 21.794000 18.241500 24.073500
H 18.350800 20.413200 23.036700
H 19.130700 20.212300 22.386200
H 18.008800 20.800000 23.934000
H 19.557800 20.659600 23.172000
H 18.996900 20.953400 23.945900
H 19.985000 21.106900 23.957700
H 21.106800 20.519100 22.409900
H 20.545900 20.813000 23.183800
H 21.773600 20.944700 23.077800
H 21.961100 21.413800 23.981400
H 20.973000 21.260300 23.969600
H 17.984200 18.116700 24.703700
H 18.123200 18.555600 25.630900
H 18.142700 18.569300 25.636400
H 18.006500 18.135400 24.706300
H 18.993300 18.278200 24.783300
H 19.040900 18.477100 25.241500
H 19.166400 18.075900 24.334200
H 19.958600 18.398500 24.852200
H 19.980000 18.421000 24.860300
H 19.375600 18.692200 25.609400
H 21.933000 18.680400 25.000700
H 20.876300 18.320000 24.462800
H 20.966700 18.563800 24.937300
H 19.833100 18.799700 25.759500
H 20.362300 18.835000 25.686400
H 20.750800 18.721200 25.370100
H 21.953400 18.706600 25.014300
H 21.543000 19.043800 25.888100
H 21.560800 19.063900 25.903100
H 18.196400 21.269000 24.837700
H 19.424000 21.400800 24.731600
H 20.412100 21.554200 24.743500
H 18.863100 21.694600 25.505500
H 19.830500 21.962700 25.758700
H 20.839200 22.001500 25.529200
H 21.619100 21.800600 24.878700
H 18.771200 18.963300 26.358500
H 18.754000 18.952500 26.349400
H 19.707600 19.200900 26.666800
H 19.723600 19.212100 26.679100
H 20.728400 19.234400 26.498000
H 20.744600 19.248900 26.512500
H 20.918200 22.640500 16.796900
H 20.925000 22.675200 16.809200
H 20.159300 22.805100 17.481600
H 20.170500 22.836100 17.499600
H 19.670600 22.558100 18.362400
H 19.659700 22.537100 18.347800
H 18.057800 23.348100 22.319200
H 19.292000 23.457800 22.294000
H 18.717300 23.083600 21.566300
H 18.714900 23.127100 21.579300
H 19.782500 23.440600 22.124800
H 19.680000 23.036000 21.216100
H 19.684700 23.019600 21.203400
H 20.283800 23.502600 22.174800
H 20.700100 23.161700 21.339900
H 20.700900 23.173300 21.327700
H 21.493600 23.503400 21.906000
H 21.501800 23.470500 21.917500
H 17.899800 23.810700 23.272800
H 17.883000 23.742300 23.260300
H 18.063300 23.410700 22.332100
H 18.974200 23.628000 22.682800
H 19.866600 23.831900 23.021800
H 18.874800 23.787100 23.141100
H 19.885100 23.845200 23.033500
H 19.076700 24.032600 23.591500
H 20.858500 23.876800 22.902600
H 20.796000 24.062500 23.384200
H 21.850300 23.921600 22.783300
H 21.870300 23.879800 22.794100
H 20.693400 23.657900 22.475500
H 19.449500 24.161300 23.868900
H 19.987600 24.249900 23.942200
H 20.441300 24.206100 23.749600
H 21.706900 24.279800 23.734900
H 21.675500 24.315700 23.724500
H 18.239700 24.160400 24.137600
H 18.268300 24.219900 24.149400
H 19.070000 24.528800 24.727000
H 19.032400 24.490600 24.715900
H 20.090100 24.654500 24.850800
H 20.048600 24.644300 24.840300
H 21.016000 24.580300 24.477400
H 21.055200 24.563300 24.487700
H 22.374900 21.315200 16.590000
H 22.385300 21.294500 16.608200
H 22.570400 19.838200 17.924100
H 22.593700 19.845000 17.970200
H 22.700300 20.473600 17.154600
H 22.681800 20.480600 17.119900
H 12.814800 27.013300 23.709100
H 12.057900 27.717600 23.762000
H 13.815000 26.780200 23.578900
H 14.790500 27.080600 23.406000
H 12.735000 28.738000 23.571600
H 11.747100 28.704400 23.723200
H 13.268800 27.892500 23.564600
H 13.722800 28.771700 23.420100
H 14.710700 28.805300 23.268500
H 14.256700 27.926100 23.413100
H 15.698500 28.838900 23.117000
H 15.479900 27.834200 23.237000
H 11.965700 29.709100 23.603200
H 13.189000 29.617200 23.427100
H 12.655100 30.462700 23.434100
H 13.630600 30.763100 23.261300
H 14.176800 29.650800 23.275600
H 14.630800 30.530000 23.131000
H 15.387700 29.825700 23.078200
H 16.407900 2.924840 7.439320
H 16.650600 3.445620 8.257740
H 15.635400 2.751210 8.106310
H 15.200000 2.903190 9.033170
H 16.046700 3.434790 9.054660
H 16.893400 3.966390 9.076150
H 16.289500 3.955570 9.873070
H 15.685500 3.944740 10.670000
H 15.218400 3.340050 9.971540
H 16.476300 4.555230 10.941400
H 17.310400 3.377560 7.210920
H 18.101300 3.988050 7.482310
H 17.497300 3.977220 8.279230
H 18.568400 4.592740 8.180760
H 17.740100 4.498000 9.097640
H 18.586800 5.029600 9.119130
H 17.378900 5.007950 10.713000
H 18.151400 5.181580 10.046000
H 17.136100 4.487170 9.894560
H 23.959400 3.518030 7.099090
H 24.538000 3.833700 7.851110
H 24.471400 4.333630 6.719110
H 25.156300 5.099860 6.843950
H 25.830500 5.611410 7.440160
H 25.136400 4.624620 7.723540
H 23.757500 2.871590 7.882080
H 23.919700 2.567540 8.858280
H 24.518100 3.358460 8.730710
H 25.116600 4.149380 8.603140
H 25.096700 3.674140 9.482730
H 25.715000 4.940300 8.475560
H 25.695100 4.465050 9.355160
H 26.313400 5.731210 8.347990
H 26.475600 5.427160 9.324190
H 24.402600 2.687340 9.766110
H 25.076900 3.198890 10.362300
H 25.761700 3.965130 10.487200
H 26.273700 4.780730 10.107200
H 22.282600 26.343900 10.080800
H 22.248600 26.398300 10.079700
H 21.971400 26.793300 10.960000
H 21.944600 26.845300 10.962600
H 21.879400 27.683100 11.567200
H 21.893200 27.634800 11.557900
H 22.070500 28.687200 11.731500
H 22.069100 28.642900 11.714400
H 23.205100 27.018800 8.436640
H 23.230700 26.965800 8.433360
H 22.710000 26.461800 9.155180
H 22.743600 26.407000 9.156030
H 23.036000 27.611200 9.171890
H 23.020500 27.661300 9.180370
H 22.542300 27.351000 10.001900
H 22.562000 27.300300 9.995620
H 23.314200 28.614000 9.102540
H 23.315400 28.567600 9.086680
H 23.789400 28.878500 8.262940
H 23.792400 28.924200 8.280990
H 23.613500 27.870400 8.106470
H 23.601300 27.920100 8.116670
H 23.727200 29.762100 8.885580
H 23.711200 29.720000 8.860860
H 22.357700 27.993400 10.745600
H 22.367300 27.945700 10.734100
H 22.841300 28.256700 9.910410
H 22.835900 28.303700 9.924090
H 22.651300 28.946100 10.667800
H 22.646600 28.902100 10.648900
H 23.120600 29.213000 9.825200
H 23.129500 29.256400 9.846270
H 22.451900 29.547600 11.387500
H 22.466700 29.588600 11.411500
H 23.400000 30.169400 9.740000
H 23.423200 30.209100 9.768440
H 22.961800 30.145600 10.693000
H 22.939000 30.106300 10.664800
