LAMMPS (3 Mar 2020)
OMP_NUM_THREADS environment is not set. Defaulting to 1 thread. (src/comm.cpp:94)
  using 1 OpenMP thread(s) per MPI task
Reading data file ...
  orthogonal box = (0 0 0) to (33.79 33.79 33.79)
  6 by 6 by 6 MPI processor grid
  reading atoms ...
  28900 atoms
  scanning bonds ...
  1 = max bonds/atom
  reading bonds ...
  8700 bonds
Finding 1-2 1-3 1-4 neighbors ...
  special bond factors lj:   0          0          0         
  special bond factors coul: 0          0          0         
  2 = max # of 1-2 neighbors
  2 = max # of 1-3 neighbors
  4 = max # of 1-4 neighbors
  6 = max # of special neighbors
  special bonds CPU = 2.5058 secs
  read_data CPU = 2.66862 secs
9000 atoms in group polyA
9000 atoms in group counterions
9000 atoms in group chain
1900 atoms in group filler
3300 atoms in group water
5700 atoms in group salt
27000 atoms in group exc
Finding 1-2 1-3 1-4 neighbors ...
  special bond factors lj:   0          1          1         
  special bond factors coul: 0          1          1         
  2 = max # of 1-2 neighbors
  6 = max # of special neighbors
  special bonds CPU = 0.0198374 secs
100 rigid bodies with 1900 atoms
Neighbor list info ...
  update every 1 steps, delay 0 steps, check yes
  max neighbors/atom: 2000, page size: 100000
  master list distance cutoff = 1.7
  ghost atom cutoff = 1.7
  binsize = 0.85, bins = 40 40 40
  1 neighbor lists, perpetual/occasional/extra = 1 0 0
  (1) pair soft, perpetual
      attributes: half, newton on
      pair build: half/bin/newton
      stencil: half/bin/3d/newton
      bin: standard
Setting up Verlet run ...
  Unit style    : lj
  Current step  : 0
  Time step     : 0.005
WARNING: Communication cutoff 1.7 is shorter than a bond length based estimate of 1.755. This may lead to errors. (src/comm.cpp:686)
Per MPI rank memory allocation (min/avg/max) = 14.01 | 14.58 | 15.14 Mbytes
Step Temp Press TotEng Volume 
       0   0.79936292    5.9326049    18.173142    38580.209 
   10000   0.79615653    11.974853    12.241069    38580.209 
   20000   0.80135687    13.514546    12.645067    38580.209 
   30000   0.80139999     14.95544    13.059204    38580.209 
   40000   0.79988006    16.514954    13.404397    38580.209 
   50000   0.79748943    18.023663    13.775176    38580.209 
   60000   0.79976539    19.501533    14.154221    38580.209 
   70000    0.8039548    21.044318    14.499576    38580.209 
   80000   0.80783765    22.572584    14.862927    38580.209 
   90000   0.79998039      24.0692    15.232927    38580.209 
  100000     0.804164     25.55562    15.596665    38580.209 
  110000   0.79530253     27.01548    15.979281    38580.209 
  120000   0.80328517      28.4838    16.358401    38580.209 
  130000   0.80488299    29.963809    16.765006    38580.209 
  140000   0.79356257     31.44009    17.145812    38580.209 
  150000   0.79808774    32.947641    17.544818    38580.209 
  160000   0.80523495    34.415357    17.955016    38580.209 
  170000    0.8034158     35.84828    18.354324    38580.209 
  180000   0.79777756    37.344996    18.742882    38580.209 
  190000   0.80044598    38.848347    19.145188    38580.209 
  200000   0.79878369    40.300204     19.54695    38580.209 
  210000    0.8034762    41.818196    19.948166    38580.209 
  220000   0.79828178    43.164319    20.348591    38580.209 
  230000   0.80143123    44.624504    20.752818    38580.209 
  240000   0.79884343    46.154055    21.156445    38580.209 
  250000   0.80599712    47.626783    21.562594    38580.209 
  260000   0.79944702    49.032556    21.959805    38580.209 
  270000   0.79512142    50.476414    22.353998    38580.209 
  280000   0.80208299    51.900437    22.757806    38580.209 
  290000   0.80207507    53.399679    23.167266    38580.209 
  300000   0.80284818    54.848627     23.56819    38580.209 
  310000   0.80330577    56.334148    23.970415    38580.209 
  320000   0.80211979    57.732197    24.375229    38580.209 
  330000   0.80064992    59.113635    24.763705    38580.209 
  340000   0.79958217    60.617836    25.165857    38580.209 
  350000   0.79915303    62.037406     25.56201    38580.209 
  360000   0.80052973    63.472826    25.968092    38580.209 
  370000   0.79788407    64.917237    26.367296    38580.209 
  380000   0.79744984    66.388738    26.757877    38580.209 
  390000    0.7974988    67.778398    27.159865    38580.209 
  400000   0.79764519     69.24556    27.545875    38580.209 
  410000   0.80567792    70.691164    27.962612    38580.209 
  420000   0.79603983    72.141519     28.35654    38580.209 
  430000   0.79648381    73.519692    28.743846    38580.209 
  440000    0.8033541    74.994906    29.159338    38580.209 
  450000   0.79298753    76.438384    29.534526    38580.209 
  460000   0.80123506    77.886008    29.945805    38580.209 
  470000   0.80086571    79.268118    30.344428    38580.209 
  480000   0.80303953    80.647101    30.735428    38580.209 
  490000   0.80869646    82.119929    31.153415    38580.209 
  500000   0.80302538    83.605067    31.529887    38580.209 
  510000   0.80137095    84.920783     31.93017    38580.209 
  520000   0.79765368    86.372239     32.33073    38580.209 
  530000    0.8000793    87.759158     32.71743    38580.209 
  540000   0.80309347    89.251418    33.107512    38580.209 
  550000   0.79315674    90.610309    33.491584    38580.209 
  560000   0.79626821    92.079713    33.896498    38580.209 
  570000   0.80589174    93.409369    34.299087    38580.209 
  580000   0.79849158     94.87971    34.696993    38580.209 
  590000   0.80089254    96.308642    35.084372    38580.209 
  600000   0.80103204    97.730371    35.480856    38580.209 
  610000    0.7968436    99.170991    35.868157    38580.209 
  620000   0.79994285    100.46051    36.265778    38580.209 
  630000    0.8032087    101.98893    36.659399    38580.209 
  640000   0.80079341    103.32573    37.057435    38580.209 
  650000    0.7957535    104.70808    37.444685    38580.209 
  660000   0.79849855    106.19356    37.832832    38580.209 
  670000   0.79327972    107.57322     38.22605    38580.209 
  680000   0.80169493    108.98339    38.626209    38580.209 
  690000   0.80245903    110.37861    39.016992    38580.209 
  700000   0.80231858    111.86396    39.411962    38580.209 
  710000   0.80653391    113.23156    39.807544    38580.209 
  720000   0.80452417     114.5305    40.196321    38580.209 
  730000   0.79789234    116.01823     40.58181    38580.209 
  740000   0.80099422    117.28689    40.971452    38580.209 
  750000   0.80093767    118.80375    41.365266    38580.209 
  760000   0.79403584    120.17412    41.747594    38580.209 
  770000   0.79943533    121.59073    42.155639    38580.209 
  780000   0.79488257    123.05413    42.537255    38580.209 
  790000   0.80040546     124.3927    42.936103    38580.209 
  800000   0.80060669    125.89989    43.302902    38580.209 
  810000   0.80211665    127.19217    43.714724    38580.209 
  820000   0.79359384    128.57102    44.085628    38580.209 
  830000   0.80646796    130.06676    44.482923    38580.209 
  840000   0.79717291    131.37332    44.868497    38580.209 
  850000    0.8002558    132.80169    45.264341    38580.209 
  860000   0.79791314    134.15661    45.642427    38580.209 
  870000   0.80443967    135.60057    46.037449    38580.209 
  880000   0.79991536    136.86289    46.423446    38580.209 
  890000   0.79804109    138.33179    46.807269    38580.209 
  900000   0.79746516    139.80715    47.201206    38580.209 
  910000   0.80364983     141.1213    47.604733    38580.209 
  920000   0.80032885    142.53238     47.98473    38580.209 
  930000   0.80331153    143.93131    48.375611    38580.209 
  940000   0.79782997    145.33189    48.750414    38580.209 
  950000   0.80228418    146.63504    49.140452    38580.209 
  960000   0.80214692    148.09184    49.532418    38580.209 
  970000    0.8015997    149.49965    49.933621    38580.209 
  980000   0.79549808    150.80706    50.291291    38580.209 
  990000   0.79587015    152.19957    50.694514    38580.209 
 1000000   0.80294259    153.58312    51.082118    38580.209 
 1010000   0.79546922    154.97772    51.464227    38580.209 
 1020000    0.7972222    156.36656    51.845179    38580.209 
 1030000   0.80515706    157.84689    52.256798    38580.209 
 1040000   0.80025972    159.18505    52.634008    38580.209 
 1050000   0.79818993     160.6085    53.014058    38580.209 
 1060000   0.79809174    161.89927    53.397879    38580.209 
 1070000   0.80056002    163.23476    53.798777    38580.209 
 1080000   0.79920639    164.73933    54.164124    38580.209 
 1090000   0.80073952    166.05883    54.566653    38580.209 
 1100000   0.80701142    167.41523    54.947487    38580.209 
 1110000   0.80401666    168.87773     55.32497    38580.209 
 1120000   0.79361183    170.17111    55.713267    38580.209 
 1130000   0.80171728    171.53546    56.097709    38580.209 
 1140000    0.7978599    172.86152    56.485438    38580.209 
 1150000   0.79361934    174.34007    56.862867    38580.209 
 1160000   0.80113664    175.61064     57.25243    38580.209 
 1170000   0.79963034    177.04028    57.637715    38580.209 
 1180000   0.80067608     178.4902    58.021521    38580.209 
 1190000   0.80214523    179.85291    58.406801    38580.209 
 1200000   0.80632742    181.12368    58.791191    38580.209 
 1210000   0.80104753    182.61796    59.175299    38580.209 
 1220000   0.80050996    183.96583     59.56571    38580.209 
 1230000    0.7958545      185.354    59.939416    38580.209 
 1240000   0.80143433    186.64911    60.332778    38580.209 
 1250000   0.80004729    188.04343    60.711847    38580.209 
 1260000   0.79336407    189.34355    61.086869    38580.209 
 1270000   0.80259541    190.73421    61.480992    38580.209 
 1280000   0.79542811    192.16569    61.860505    38580.209 
 1290000   0.80388958    193.53509    62.259481    38580.209 
 1300000   0.80331824    194.83667    62.635265    38580.209 
 1310000   0.80190769     196.2757    63.031667    38580.209 
 1320000   0.79852502     197.5556    63.387109    38580.209 
 1330000   0.80123027    198.89961    63.782292    38580.209 
 1340000   0.79956494    200.34943    64.165487    38580.209 
 1350000   0.79910605    201.59684    64.535942    38580.209 
 1360000   0.79696659    203.12986    64.916381    38580.209 
 1370000   0.80201911    204.50664    65.313785    38580.209 
 1380000    0.8019809    205.86741    65.697461    38580.209 
 1390000   0.79867436    207.19838    66.077183    38580.209 
 1400000   0.79787592    208.52635    66.459246    38580.209 
 1410000   0.79463913    209.89481    66.834636    38580.209 
 1420000   0.79780492    211.21817    67.227285    38580.209 
 1430000    0.8065033    212.64824    67.610452    38580.209 
 1440000   0.80108391    214.05024    67.992302    38580.209 
 1450000   0.80357462    215.37919    68.370348    38580.209 
 1460000   0.80006212    216.73672    68.743369    38580.209 
 1470000   0.79594157    218.07707    69.126038    38580.209 
 1480000    0.7976608    219.37659    69.513633    38580.209 
 1490000   0.80087534    220.83871    69.882534    38580.209 
 1500000   0.79861444    222.10191    70.275856    38580.209 
 1510000   0.80268302    223.53009    70.666167    38580.209 
 1520000   0.80490139    224.82018    71.052326    38580.209 
 1530000   0.80422451    226.29357     71.43232    38580.209 
 1540000   0.80060885    227.54601    71.805402    38580.209 
 1550000   0.79991206     228.8977     72.17785    38580.209 
 1560000   0.79566648    230.30038     72.54652    38580.209 
 1570000    0.7985384    231.63662    72.934651    38580.209 
 1580000   0.79968112    232.97038    73.327688    38580.209 
 1590000    0.7945567    234.36596    73.700166    38580.209 
 1600000   0.80086382     235.7028    74.073663    38580.209 
 1610000   0.79771853    237.12411    74.464915    38580.209 
 1620000   0.79631132    238.42966    74.837548    38580.209 
 1630000   0.80083586    239.88005    75.221475    38580.209 
 1640000   0.79678659    241.12032    75.591044    38580.209 
 1650000   0.81145273    242.52456    75.997667    38580.209 
 1660000    0.7933355    243.87071    76.352418    38580.209 
 1670000   0.80123021    245.18225    76.747764    38580.209 
 1680000   0.80083296    246.63071    77.128889    38580.209 
 1690000   0.79953049    247.90479    77.500362    38580.209 
 1700000    0.7987789    249.29251    77.875384    38580.209 
 1710000    0.7956933    250.62888    78.250951    38580.209 
 1720000   0.80101653    251.97335    78.633934    38580.209 
 1730000   0.80352836    253.21013    79.016872    38580.209 
 1740000   0.79569387    254.71144    79.384041    38580.209 
 1750000   0.80567822     256.0793    79.777818    38580.209 
 1760000   0.80045889    257.46377    80.144839    38580.209 
 1770000   0.79720502     258.7934    80.531979    38580.209 
 1780000   0.80714334    260.11367    80.909439    38580.209 
 1790000   0.80529985    261.40781    81.289617    38580.209 
 1800000   0.80053017    262.87439    81.672988    38580.209 
 1810000   0.80154685    264.10945     82.06057    38580.209 
 1820000   0.79651946    265.45233    82.413416    38580.209 
 1830000   0.79854972    266.91945    82.792254    38580.209 
 1840000   0.79340907    268.15365    83.160553    38580.209 
 1850000   0.81029763    269.48619    83.576302    38580.209 
 1860000   0.79928342    270.79999    83.944595    38580.209 
 1870000   0.80100871    272.21177    84.308219    38580.209 
 1880000   0.79517802    273.57095    84.681802    38580.209 
 1890000   0.80851563    274.92808    85.081737    38580.209 
 1900000   0.80287201    276.23761    85.455788    38580.209 
 1910000   0.79751942    277.60787    85.815548    38580.209 
 1920000   0.80234799    279.00247    86.209683    38580.209 
 1930000   0.79893855    280.25677    86.572033    38580.209 
 1940000   0.80031039    281.68185    86.961589    38580.209 
 1950000   0.79606539    283.02015    87.330389    38580.209 
 1960000   0.79770523    284.25055     87.71365    38580.209 
 1970000   0.79854338    285.53934    88.091614    38580.209 
 1980000   0.79988757    286.92673    88.463112    38580.209 
 1990000   0.79608556    288.37484    88.830107    38580.209 
 2000000   0.79977418    289.82208    89.204269    38580.209 
Loop time of 1183.45 on 216 procs for 2000000 steps with 28900 atoms

Performance: 730066.363 tau/day, 1689.968 timesteps/s
99.9% CPU use with 216 MPI tasks x 1 OpenMP threads

MPI task timing breakdown:
Section |  min time  |  avg time  |  max time  |%varavg| %total
---------------------------------------------------------------
Pair    | 130.57     | 142.22     | 165.16     |  58.2 | 12.02
Bond    | 1.1917     | 2.8579     | 4.5358     |  43.6 |  0.24
Neigh   | 77.374     | 83.007     | 88.074     |  21.3 |  7.01
Comm    | 274.65     | 317.26     | 351.11     |  84.8 | 26.81
Output  | 0.6176     | 0.62133    | 0.65122    |   0.3 |  0.05
Modify  | 450.29     | 479.71     | 528.01     |  59.7 | 40.53
Other   |            | 157.8      |            |       | 13.33

Nlocal:    133.796 ave 175 max 119 min
Histogram: 21 64 64 42 5 7 6 2 2 3
Nghost:    418.764 ave 475 max 385 min
Histogram: 9 29 38 53 37 20 18 6 4 2
Neighs:    933.046 ave 1367 max 774 min
Histogram: 14 65 71 39 12 4 5 3 1 2

Total # of neighbors = 201538
Ave neighs/atom = 6.97363
Ave special neighs/atom = 0.602076
Neighbor list builds = 237274
Dangerous builds = 0
System init for write_data ...
Neighbor list info ...
  update every 1 steps, delay 0 steps, check yes
  max neighbors/atom: 2000, page size: 100000
  master list distance cutoff = 2.8
  ghost atom cutoff = 2.8
  binsize = 1.4, bins = 25 25 25
  1 neighbor lists, perpetual/occasional/extra = 1 0 0
  (1) pair lj/cut, perpetual
      attributes: half, newton on
      pair build: half/bin/newton
      stencil: half/bin/3d/newton
      bin: standard
Setting up Verlet run ...
  Unit style    : lj
  Current step  : 2000000
  Time step     : 0.005
Per MPI rank memory allocation (min/avg/max) = 14.05 | 14.69 | 15.17 Mbytes
Step Temp Press TotEng Volume 
 2000000   0.79977418    10.987515    5.2829503    38580.209 
 2010000   0.79067392  -0.24179621    2.2197762    35478.643 
 2020000   0.80712816  -0.23183755     2.230279    35480.005 
 2030000   0.80065451  -0.23436781     2.225996    35502.271 
 2040000   0.79714602  -0.24577327    2.2303068    35640.019 
 2050000   0.80038345   -0.2385965    2.2197244    35524.441 
 2060000   0.80684249  -0.23639509    2.2431499    35577.261 
 2070000   0.79747936  -0.23188899    2.2312883    35578.413 
 2080000   0.79736111  -0.23749762    2.2313007    35593.205 
 2090000    0.8004032  -0.23985195    2.2101756    35432.482 
 2100000   0.79349297  -0.23757691    2.1890539      35355.2 
 2110000    0.7924144  -0.24111245    2.2117918    35536.107 
 2120000   0.80921864   -0.2459403    2.2391328    35504.155 
 2130000   0.80019238  -0.23390132    2.2332663    35473.526 
 2140000   0.80230777   -0.2398913    2.2119519    35381.431 
 2150000   0.79979503  -0.23472684    2.2222715    35444.382 
 2160000   0.80130592  -0.23940372    2.2167005    35466.241 
 2170000   0.79747012  -0.24080083    2.2150706    35496.468 
 2180000   0.80574695  -0.24401219    2.2236313    35456.408 
 2190000   0.79812701  -0.23740399    2.2221877    35539.051 
 2200000   0.80178132  -0.23160911    2.2218398    35477.093 
 2210000   0.79896095  -0.23099748    2.2244582    35558.496 
 2220000      0.80511  -0.23796706     2.223903    35487.801 
 2230000   0.79978432  -0.23874325    2.2237057    35495.437 
 2240000   0.80222044  -0.23068087    2.2254271    35519.385 
 2250000   0.80015233  -0.24867302    2.2373516    35575.102 
 2260000    0.8060172   -0.2390231    2.2294095    35486.685 
 2270000   0.80683781  -0.23556605    2.2157784    35396.669 
 2280000   0.79512416  -0.23581902    2.2100423    35488.361 
 2290000   0.79821854  -0.24312265    2.1977644    35334.629 
 2300000   0.79640551  -0.23451433    2.2035161    35445.111 
 2310000    0.7941359   -0.2433361    2.2117922    35493.003 
 2320000   0.80698282  -0.24959861    2.2352451    35528.918 
 2330000   0.80002151  -0.24139624     2.223367    35506.258 
 2340000   0.80599439  -0.24746735    2.2259917    35502.774 
 2350000    0.7973936  -0.24284472    2.2006284      35432.3 
 2360000   0.79840815  -0.24156394    2.2238692    35536.701 
 2370000   0.79705254  -0.23493994    2.2110504    35487.948 
 2380000   0.80037763  -0.25289605    2.2203019    35465.127 
 2390000   0.79930007  -0.24293848     2.231823    35551.009 
 2400000   0.79819877  -0.23846877    2.2305657    35569.027 
 2410000   0.80394891   -0.2480237    2.2186494    35395.765 
 2420000   0.80206199  -0.24530311    2.2204604    35488.678 
 2430000   0.80432337  -0.23467764    2.2227173    35510.243 
 2440000   0.79703047  -0.23404229    2.2117729    35461.385 
 2450000   0.80208971  -0.23747608    2.2147362    35402.642 
 2460000    0.7983995  -0.23939253    2.2188232    35471.649 
 2470000   0.79611744  -0.23903959    2.2237309    35577.724 
 2480000   0.80263251  -0.24424761    2.2299592    35513.231 
 2490000   0.79777139  -0.23320318    2.2145576    35460.063 
 2500000    0.8045496  -0.24392738    2.2163349    35424.928 
 2510000   0.80530191  -0.23110523    2.2203541     35474.07 
 2520000   0.79862144  -0.24285647    2.2180817    35498.723 
 2530000   0.79940395  -0.24395035    2.2267973    35560.235 
 2540000   0.80362494  -0.24019326    2.2090697    35398.546 
 2550000   0.79403945  -0.23319295    2.1926093      35437.9 
 2560000   0.80561729  -0.23896104    2.2199215    35457.394 
 2570000   0.79512348  -0.24072101    2.2047165    35443.282 
 2580000   0.79544044  -0.24252751    2.2034727     35444.76 
 2590000   0.79900792  -0.23742243    2.2079404    35460.503 
 2600000   0.79916117  -0.24468362    2.2186216    35546.285 
 2610000   0.79598253  -0.25064987    2.1870559    35344.259 
 2620000   0.79597898  -0.24447782    2.2129158    35540.808 
 2630000   0.79964303  -0.24690818    2.2191752    35517.715 
 2640000   0.80463718  -0.23875534    2.2225938    35472.493 
 2650000   0.80626049  -0.23766246    2.2150176    35450.961 
 2660000   0.79922818  -0.23398149    2.2352506    35643.753 
 2670000   0.79843323  -0.23829759    2.1985003    35377.214 
 2680000   0.79409407  -0.24351179    2.1981553    35434.741 
 2690000   0.79895654  -0.24056323    2.2270177    35594.009 
 2700000   0.79705536  -0.23555675    2.2149847    35479.122 
 2710000   0.80434126  -0.24656945    2.2136759    35455.833 
 2720000   0.79976436  -0.23182588    2.2043954    35433.117 
 2730000   0.80308444  -0.23592525    2.2024467    35454.271 
 2740000   0.80247313  -0.24195064    2.1939929    35377.441 
 2750000   0.79553821  -0.24233332    2.2016681    35438.322 
 2760000   0.79913315  -0.23152225    2.2002184     35447.08 
 2770000   0.79351645  -0.24048744    2.2192148    35559.926 
 2780000   0.79403862  -0.24244489    2.2035531    35477.392 
 2790000   0.80158282  -0.23874925    2.2139503     35520.95 
 2800000   0.79689701  -0.23152543    2.2076212    35479.829 
 2810000   0.80398819  -0.23548627    2.2212042    35457.537 
 2820000   0.80133249  -0.22580618    2.2328448    35589.145 
 2830000   0.79698839  -0.23392766    2.2004958    35399.242 
 2840000   0.79686332  -0.23999036    2.2101536    35501.389 
 2850000    0.8022763  -0.24120068    2.1940741     35331.77 
 2860000   0.79158437  -0.24193625    2.2027573    35486.458 
 2870000   0.79791745  -0.24207356    2.1997642    35442.111 
 2880000   0.80125238  -0.23707621    2.1954699    35379.597 
 2890000   0.79650511  -0.24735448     2.198426    35457.934 
 2900000   0.80055164  -0.24399749    2.2187808    35513.583 
 2910000   0.79826113  -0.23578249    2.2015988    35394.784 
 2920000   0.79464832   -0.2321657    2.2211843    35593.446 
 2930000   0.79802091   -0.2398696    2.1905221     35393.61 
 2940000    0.7996905  -0.24042771    2.2258681    35514.653 
 2950000   0.80014737  -0.23883867    2.2132732     35492.52 
 2960000    0.7943176  -0.23213779    2.2073999    35493.078 
 2970000    0.8008858   -0.2334244    2.2102899    35472.645 
 2980000   0.79753572  -0.24187424    2.2143935    35466.866 
 2990000   0.79742471  -0.24409664    2.2113657    35495.328 
 3000000   0.79865695  -0.24644191    2.2079398    35473.276 
 3010000   0.80615473  -0.23924141     2.222765    35470.658 
 3020000   0.80351059   -0.2508277    2.2298299    35533.334 
 3030000   0.80915062  -0.23471034    2.2286184     35478.89 
 3040000   0.79842539  -0.23834833    2.1983867    35386.688 
 3050000   0.80042022  -0.24814014    2.2147312    35466.329 
 3060000   0.80156272  -0.23688732    2.2272662    35573.859 
 3070000    0.8009628  -0.24712488    2.1925226    35331.418 
 3080000   0.79866266  -0.23504606    2.2084645    35470.205 
 3090000   0.80454744  -0.23710099     2.220329    35509.175 
 3100000   0.79856937  -0.24227311     2.204162    35416.698 
 3110000   0.79857108  -0.23948565    2.2066204    35430.585 
 3120000   0.80385556  -0.23548329    2.2197415    35459.775 
 3130000   0.80343023  -0.24631328    2.2039065    35415.719 
 3140000   0.80209063  -0.23827424     2.217606     35517.51 
 3150000   0.79949891  -0.23762082    2.2145023    35501.139 
 3160000   0.80551366  -0.23383058    2.2248931    35461.746 
 3170000   0.79752206  -0.24903251    2.2234079    35579.287 
 3180000   0.79888724  -0.24055328    2.2154921    35555.789 
 3190000   0.80084605  -0.24182263    2.2123751     35497.63 
 3200000   0.79016403  -0.25278491    2.2049699    35517.682 
 3210000   0.79918411  -0.23396023    2.2196669    35522.047 
 3220000   0.80072249  -0.24635597    2.1966756    35369.424 
 3230000   0.80727649  -0.24179733     2.217635    35490.032 
 3240000   0.80070201   -0.2455419    2.2173587    35477.002 
 3250000    0.8021456  -0.23042033    2.2274988     35570.19 
 3260000   0.79654548  -0.23747199     2.211055    35472.135 
 3270000   0.79601096  -0.23596817    2.2049339    35479.316 
 3280000   0.80287739  -0.24585701    2.2146832    35441.399 
 3290000   0.80262499  -0.24659688    2.2036502    35394.381 
 3300000   0.79815926  -0.23603129    2.2057862    35471.393 
 3310000   0.80528913  -0.24158042     2.209885    35445.705 
 3320000   0.79906143  -0.24299494    2.2044808    35460.696 
 3330000   0.80296105  -0.24130535    2.2131868    35461.888 
 3340000   0.80224915  -0.25512955    2.1987118    35354.141 
 3350000   0.80027711  -0.24236176    2.2181686    35495.661 
 3360000   0.79332234   -0.2323808    2.2069228     35518.86 
 3370000   0.79520501  -0.24675758    2.2149267    35527.729 
 3380000   0.80167356  -0.24606594    2.2166767    35519.653 
 3390000   0.80297162  -0.24024814    2.2168316    35479.633 
 3400000   0.80200604  -0.23944435    2.2124718    35451.026 
 3410000   0.80100236   -0.2334137    2.2283254    35569.641 
 3420000   0.79277556  -0.23493627    2.1922051    35410.764 
 3430000   0.80180576  -0.24320768    2.2245392     35537.56 
 3440000   0.80033563  -0.23625489     2.203507    35412.891 
 3450000   0.80049392  -0.23744164    2.2075437    35479.202 
 3460000    0.7997264  -0.23825162    2.2280983    35580.027 
 3470000   0.80129917  -0.24480327     2.194312    35367.605 
 3480000   0.80968982  -0.24247285    2.2213345    35472.375 
 3490000   0.79475694  -0.24065624    2.1955642    35419.249 
 3500000   0.80341745  -0.23684024    2.2194122    35502.678 
 3510000   0.80319192  -0.24001178    2.2109278    35406.383 
 3520000   0.79956147  -0.24538064    2.2162585    35508.055 
 3530000    0.7993372  -0.24372013    2.1979276    35354.965 
 3540000    0.7957366  -0.23754481    2.2208087    35534.851 
 3550000      0.79507  -0.24050266    2.2069873    35485.545 
 3560000   0.80064775  -0.23803635    2.2136506    35482.499 
 3570000      0.80349  -0.24123769    2.2308289    35559.561 
 3580000   0.79925664  -0.24023442    2.2205629    35605.685 
 3590000    0.7927987  -0.23311267    2.1957033    35481.223 
 3600000   0.80005914   -0.2454349    2.1961617    35440.186 
 3610000   0.79262826  -0.23953984    2.2191022    35566.649 
 3620000   0.79486367  -0.25190044    2.2096316    35497.977 
 3630000   0.79281373  -0.24033608    2.2196374    35524.286 
 3640000   0.80212603  -0.23570447    2.2310602    35536.201 
 3650000   0.79525763  -0.23731186    2.2015599    35439.584 
 3660000    0.8057273  -0.23372445     2.232541    35537.096 
 3670000   0.80759639   -0.2387916    2.2221208    35398.135 
 3680000   0.80261973  -0.24024009    2.2292097    35554.416 
 3690000   0.79552435  -0.23463599    2.1993477     35430.89 
 3700000   0.79656262  -0.23854407    2.2283916    35603.949 
 3710000   0.80022364  -0.24845946      2.22012    35484.969 
 3720000   0.79977751  -0.24730927    2.2034021     35411.18 
 3730000   0.79985138  -0.23996195    2.2130116    35474.256 
 3740000   0.79706274  -0.22878706    2.2215222    35588.983 
 3750000   0.80236529  -0.23774118    2.2355655    35550.596 
 3760000   0.80548464  -0.24194717    2.2336187    35542.653 
 3770000    0.7947364  -0.24320153    2.2053408     35500.87 
 3780000   0.80118871  -0.23732749    2.2178089    35511.862 
 3790000   0.80442417  -0.22960987    2.2196682    35474.995 
 3800000   0.80582314  -0.24129707    2.2379517    35584.576 
 3810000   0.80349327  -0.23656674    2.2253099    35548.322 
 3820000   0.80314047  -0.23743135    2.2162738    35471.853 
 3830000   0.79245552  -0.23136133    2.2156407    35566.058 
 3840000    0.8018002  -0.24427788    2.2217557    35517.571 
 3850000   0.80429717  -0.23949385    2.2168937    35474.867 
 3860000   0.80365662   -0.2398125    2.2271321    35597.016 
 3870000   0.79868824  -0.23302421    2.2116379    35483.448 
 3880000   0.79943405  -0.23957108    2.2264829    35584.278 
 3890000   0.79924172  -0.23218708    2.2184279    35497.056 
 3900000   0.79287655  -0.23844693     2.201355    35517.729 
 3910000   0.80187545  -0.24666142    2.2260766    35563.246 
 3920000   0.80420545  -0.23989445    2.2269863    35515.667 
 3930000   0.80619224  -0.24146494     2.225395    35491.815 
 3940000   0.80268398  -0.24495621     2.198247    35381.935 
 3950000   0.79837192  -0.23666585    2.2031712    35427.533 
 3960000   0.80253921  -0.24479301    2.2147646    35510.728 
 3970000   0.80803708  -0.23867989    2.2260948    35490.394 
 3980000   0.80979211  -0.23755106    2.2115818    35425.768 
 3990000    0.8028506  -0.23896329    2.2190432    35474.291 
 4000000   0.80008038  -0.23509447    2.2195271    35522.294 
 4010000   0.79607376  -0.23186282    2.2274063    35643.318 
 4020000   0.79588518   -0.2384761    2.2035728    35470.286 
 4030000   0.80198789  -0.23664934    2.2035472    35429.871 
 4040000   0.79820268  -0.23636071     2.197106    35444.951 
 4050000   0.79491097  -0.23020299    2.2065757    35536.569 
 4060000   0.79537132  -0.24444452    2.2065354    35538.803 
 4070000   0.80345218  -0.24106013    2.2333581    35606.766 
 4080000   0.80239812  -0.23772786    2.2131724    35483.738 
 4090000   0.79813294  -0.22988036    2.2034552    35531.826 
 4100000   0.79374053   -0.2355257    2.2175562    35605.756 
 4110000   0.80655349  -0.23246193    2.2080235    35423.928 
 4120000   0.79886182  -0.24225086    2.2007631    35437.885 
 4130000   0.79787956  -0.23334916    2.2252827    35660.057 
 4140000   0.79681433  -0.24145022    2.2166371    35556.094 
 4150000   0.79957146  -0.24082834    2.2157676    35532.299 
 4160000   0.79763988  -0.23748509    2.2196171     35528.55 
 4170000   0.80508212  -0.24465526    2.2143739    35491.116 
 4180000   0.79392021  -0.24421451    2.1955124    35436.937 
 4190000   0.79416959  -0.24612037    2.1988886    35462.109 
 4200000   0.80118968  -0.23364747    2.2211074    35545.349 
 4210000   0.80245217  -0.24685173     2.227885    35564.704 
 4220000   0.79895995  -0.23436769    2.2221609    35554.882 
 4230000   0.80685692  -0.23078218    2.2128735    35449.165 
 4240000   0.80637394  -0.24466234    2.2307636    35542.567 
 4250000   0.80261136  -0.23603315    2.2091576    35438.815 
 4260000   0.80072663  -0.23982556    2.2054538    35421.583 
 4270000   0.79949166  -0.24146445    2.2204076    35543.154 
 4280000   0.80172358  -0.23501248    2.2161957    35516.746 
 4290000   0.79965594  -0.24454243    2.2167524    35522.473 
 4300000   0.80211148  -0.24393639    2.2131675    35478.637 
 4310000   0.79480435  -0.24711477     2.190963    35400.636 
 4320000   0.80024259  -0.24262537    2.2022104     35470.97 
 4330000   0.80054171  -0.23284128    2.2291611    35615.662 
 4340000   0.80000718  -0.24482997    2.2236528    35516.801 
 4350000    0.8008782  -0.24098777    2.2069171    35481.817 
 4360000   0.80364735  -0.23757961    2.2247385    35587.918 
 4370000   0.79289598     -0.24107    2.2171744    35563.145 
 4380000   0.80507046  -0.23841968    2.2055736    35445.598 
 4390000   0.80540672  -0.24079501    2.2169697    35497.381 
 4400000   0.80113093   -0.2459436    2.2214268    35545.461 
 4410000   0.80042487  -0.23807266    2.2144516    35477.359 
 4420000   0.80303841  -0.23528696    2.2250674    35546.393 
 4430000   0.80213038  -0.23691387    2.2287914    35550.759 
 4440000   0.79732053  -0.23761882    2.2055465    35425.247 
 4450000   0.80121217  -0.24150114    2.2178996    35585.181 
 4460000   0.79632985  -0.23475031    2.1960705    35413.207 
 4470000   0.79687226  -0.23669569    2.2181219     35557.29 
 4480000   0.79573506  -0.23859453    2.2132793    35554.137 
 4490000   0.79931401  -0.24443102    2.2178934    35550.414 
 4500000   0.79193281  -0.23547999    2.1964061    35509.419 
 4510000   0.79107903   -0.2344625    2.2135523    35576.677 
 4520000   0.79155987  -0.23541796    2.1936548    35440.179 
 4530000   0.80621821  -0.24669247    2.2083464    35417.192 
 4540000   0.79839271  -0.24581382    2.1967057    35434.159 
 4550000   0.79657825  -0.24554546    2.2124191    35539.695 
 4560000   0.80136828  -0.24341695    2.2302125      35606.4 
 4570000   0.79339952  -0.24375019    2.1838482    35346.474 
 4580000   0.79309287  -0.23350616    2.1980223    35484.515 
 4590000   0.80217434  -0.23986678    2.2272217    35557.086 
 4600000   0.80418597  -0.24239366    2.2070249    35434.752 
 4610000    0.8117206  -0.23360446    2.2241725    35487.528 
 4620000   0.79976625  -0.23670013    2.2188009    35608.565 
 4630000   0.80051659  -0.24196809    2.2087482     35443.76 
 4640000   0.80516172  -0.23170953     2.232868    35612.895 
 4650000   0.79717225  -0.24042688    2.1969485    35437.226 
 4660000   0.79849894  -0.23905724    2.2077795    35535.062 
 4670000   0.80130001  -0.23501056    2.2102865    35499.586 
 4680000   0.80023313  -0.23919844    2.2029872    35461.566 
 4690000   0.80443173  -0.23880482    2.2279862    35527.124 
 4700000   0.79803476  -0.24289108     2.225966    35553.806 
 4710000   0.79684452  -0.23711272    2.2238895    35627.491 
 4720000   0.80188016  -0.23839307     2.216326    35562.023 
 4730000   0.79584884  -0.23629931    2.1980876    35413.178 
 4740000    0.7981551   -0.2400593    2.2010484    35460.322 
 4750000   0.80007822  -0.23970424    2.1984325    35383.276 
 4760000   0.79528194  -0.24560061    2.1976441    35419.926 
 4770000    0.7988812  -0.23788754    2.1976648    35432.635 
 4780000   0.79373663  -0.23470954    2.1805458    35362.557 
 4790000   0.79310867  -0.23425055    2.2178882    35601.428 
 4800000   0.80389415  -0.24086654    2.2103112    35463.728 
 4810000   0.80135424  -0.23544898    2.2331735    35652.085 
 4820000    0.7964416  -0.23719741    2.1959973     35385.71 
 4830000   0.80199725  -0.24201935    2.2075314    35477.243 
 4840000   0.79405545  -0.23088759    2.2148388    35538.805 
 4850000   0.79999133  -0.24203867    2.2060287    35461.755 
 4860000   0.79735822  -0.23647274    2.1895754    35386.003 
 4870000   0.80829074  -0.24026379    2.2255227    35522.827 
 4880000   0.80108627  -0.23961608    2.2123967    35516.766 
 4890000   0.80815242  -0.23991699    2.2190478    35524.029 
 4900000    0.7902672  -0.23919499    2.1919646    35474.552 
 4910000    0.8053453  -0.24512049     2.201736    35381.077 
 4920000   0.80220172  -0.24350987    2.2128193    35500.179 
 4930000   0.79812521   -0.2406119    2.2037501    35452.478 
 4940000   0.79589377  -0.24532399    2.1996418     35494.46 
 4950000   0.79968034  -0.24399182    2.2025843     35452.42 
 4960000   0.80067883  -0.24189655    2.2059185    35473.068 
 4970000   0.80583851  -0.24672756    2.2107531    35506.128 
 4980000   0.80137769   -0.2463399    2.2045706    35446.405 
 4990000   0.79485736  -0.24245277    2.2005878    35450.182 
 5000000   0.79841712   -0.2386128    2.2060604    35497.526 
 5010000    0.8004196  -0.23904368    2.1968038    35462.739 
 5020000   0.80134758  -0.24828072    2.2003388    35399.827 
 5030000   0.80181551  -0.23790981    2.2172225    35451.618 
 5040000   0.80797029   -0.2378627    2.2188344      35466.4 
 5050000   0.80602149  -0.24299202    2.2144951    35455.647 
 5060000   0.79432554  -0.23965405    2.1935489    35431.933 
 5070000   0.80126562  -0.24118106    2.1941653    35378.034 
 5080000   0.79787436  -0.23690101    2.1851101    35380.467 
 5090000   0.79496316  -0.24052514    2.1880995    35413.502 
 5100000   0.80009584  -0.25358297    2.1768762    35271.439 
 5110000   0.80139803  -0.24203676    2.1946712    35417.503 
 5120000   0.79922609  -0.23738404    2.1653809    35208.293 
 5130000   0.80190648  -0.24228196     2.214793    35501.353 
 5140000   0.79731777  -0.24331711    2.1904337    35428.558 
 5150000   0.80458546  -0.23201691    2.2102027    35440.015 
 5160000   0.80271386  -0.23934561    2.2245783    35565.072 
 5170000   0.79749892  -0.24806798    2.1862074     35387.52 
 5180000   0.79925338  -0.25165257    2.1880724    35332.752 
 5190000   0.79018388  -0.23923297    2.1838544     35402.41 
 5200000   0.80229241  -0.24669851    2.2026931    35420.206 
 5210000   0.80383788  -0.23778178    2.2125436    35502.155 
 5220000   0.79823906  -0.23672452    2.1951156    35375.706 
 5230000   0.79454379  -0.23885131    2.2024902    35473.384 
 5240000   0.80672071  -0.24313867    2.2010168    35404.787 
 5250000   0.80137835  -0.24991484    2.2102817    35471.213 
 5260000   0.79562934  -0.23586582    2.2024359    35435.667 
 5270000   0.79530711  -0.24482099    2.2027247    35466.973 
 5280000   0.79309812  -0.23744248    2.1912882    35379.332 
 5290000   0.79515487  -0.24848974    2.1928824    35447.659 
 5300000   0.79661392   -0.2434503    2.1897779    35396.526 
 5310000    0.7959511  -0.24567628    2.1869569    35391.446 
 5320000    0.7992405  -0.23934333    2.1912868    35360.003 
 5330000   0.80474403  -0.24474858    2.1938638     35370.61 
 5340000   0.79835794  -0.24431836     2.188577    35390.211 
 5350000   0.80146216  -0.24689304    2.1973538    35387.809 
 5360000   0.79694843  -0.24861355    2.2072917    35499.431 
 5370000   0.79694009  -0.23870636    2.1940366    35362.473 
 5380000   0.80023479  -0.24272191     2.196436    35436.868 
 5390000   0.79784092   -0.2327855    2.1934658    35438.764 
 5400000   0.80009378  -0.22999847    2.2034626    35436.093 
 5410000   0.79983494  -0.22483616    2.1892412    35355.757 
 5420000   0.79512212  -0.23434428    2.1843248     35364.24 
 5430000   0.80293335  -0.24142114    2.2038545    35451.533 
 5440000   0.79581538   -0.2390934    2.1895531    35456.049 
 5450000   0.79577479  -0.23306794    2.1861732    35383.032 
 5460000   0.80018348  -0.22619044    2.2210133    35552.165 
 5470000   0.80043223  -0.25288173    2.2004178    35446.934 
 5480000   0.80068919  -0.24388543    2.1991503    35428.273 
 5490000   0.79803528  -0.23991805    2.1903497    35445.949 
 5500000   0.80613148  -0.23420958    2.2051133    35421.776 
 5510000   0.79523666  -0.23736899    2.1773084    35376.586 
 5520000   0.80299175  -0.24532402    2.1976225    35434.862 
 5530000   0.80442965  -0.24340354    2.2041995    35457.182 
 5540000   0.79908428  -0.23966735     2.215103    35542.839 
 5550000   0.79916544  -0.24624573    2.1898163    35410.625 
 5560000    0.7975933  -0.24410524    2.1931972    35433.685 
 5570000   0.80252351  -0.23953684    2.2126236    35455.218 
 5580000   0.80525796  -0.24608701    2.2184966    35479.929 
 5590000   0.80102744  -0.24129624    2.2054309    35485.463 
 5600000   0.79056638  -0.24332019    2.1930951    35508.481 
 5610000   0.79902266  -0.24449952    2.1926936    35377.081 
 5620000   0.79478457  -0.24232837    2.1789707    35379.445 
 5630000   0.79617465  -0.23507806    2.1980323    35466.895 
 5640000   0.80534179   -0.2482732    2.2111929     35439.82 
 5650000   0.79530608  -0.24278895    2.1825414    35407.463 
 5660000   0.79644062   -0.2330683    2.1838899    35344.673 
 5670000   0.79884707  -0.24056406    2.2027389    35442.982 
 5680000   0.79658449  -0.25199513    2.2057409    35419.021 
 5690000   0.80239222  -0.22943095     2.201861    35446.397 
 5700000   0.79967961  -0.24052166    2.2005157    35477.174 
 5710000   0.79975418  -0.23720821    2.1784687    35326.682 
 5720000   0.80186558  -0.24331943    2.1951225    35366.487 
 5730000   0.80379569  -0.24223257    2.2007965    35427.379 
 5740000   0.80277526  -0.24528553    2.1926886    35390.876 
 5750000   0.80782303   -0.2423812    2.2121789     35435.21 
 5760000   0.79466188  -0.23845458      2.17577    35388.152 
 5770000    0.8025065  -0.24381259    2.2126176     35443.22 
 5780000   0.79942182  -0.23600879    2.1713145     35297.18 
 5790000   0.79909274  -0.24149035    2.1900741    35367.379 
 5800000   0.79594152  -0.24288862    2.1997291    35433.503 
 5810000    0.8018884  -0.25382916    2.1917859     35354.81 
 5820000   0.79998492  -0.23103134    2.2020174     35422.84 
 5830000   0.80225419  -0.24371245    2.1970085    35388.921 
 5840000   0.80154363  -0.23984794    2.2142129     35497.48 
 5850000   0.79979785  -0.25284825    2.1809287    35314.075 
 5860000   0.79803803   -0.2514615    2.1757499    35297.055 
 5870000   0.79658709  -0.24149704    2.2000966    35424.489 
 5880000   0.80286286  -0.23360336    2.1890523    35340.107 
 5890000   0.79856875  -0.24089791    2.1849357    35401.228 
 5900000   0.80415892  -0.23642599    2.2038314    35456.009 
 5910000   0.80113564   -0.2487758    2.1997238    35425.575 
 5920000   0.80541188  -0.24359512    2.1957837    35375.114 
 5930000    0.8020293  -0.24024439    2.1955699    35398.439 
 5940000   0.79430668  -0.23723993    2.1875401    35422.409 
 5950000    0.7961034  -0.23046635    2.1730675    35359.092 
 5960000   0.79700669  -0.23620912    2.1855734    35381.746 
 5970000   0.80182094  -0.24568002    2.2119312    35505.895 
 5980000   0.79817086  -0.23831654    2.1792447    35360.569 
 5990000    0.7995057   -0.2263451    2.2085707    35501.372 
 6000000   0.80170689  -0.23472602    2.1918508    35394.258 
 6010000   0.80716664  -0.25190654    2.1996749    35342.312 
 6020000   0.79320228  -0.24344768    2.2049884    35574.346 
 6030000   0.80110529  -0.24355499    2.1866888     35405.67 
 6040000   0.80280786  -0.25118064     2.189302    35298.472 
 6050000   0.79963872  -0.24037982    2.1940954      35385.5 
 6060000   0.79593036  -0.24743318    2.1650461    35217.262 
 6070000   0.79936014  -0.23387677    2.1834273    35357.941 
 6080000   0.79786285   -0.2292607    2.1849625    35345.841 
 6090000   0.80191237  -0.23247163    2.2104001     35477.83 
 6100000   0.79928502  -0.23853176     2.208478    35486.886 
 6110000   0.80172373  -0.23022181    2.1894944    35350.983 
 6120000   0.80351439   -0.2434042    2.1958244    35365.165 
 6130000   0.80268096  -0.24093983     2.210302    35439.931 
 6140000   0.80412285  -0.23904997    2.1877254    35366.193 
 6150000   0.80356785  -0.23438249    2.2020506    35394.526 
 6160000   0.80824492  -0.23754095     2.206263    35435.451 
 6170000   0.79795529  -0.24126309    2.1898753    35392.831 
 6180000   0.80388582  -0.24059784    2.2020251    35463.252 
 6190000   0.79361158  -0.23363561    2.1809874    35288.632 
 6200000    0.7989753  -0.23466761    2.1944661    35429.246 
 6210000   0.79668482  -0.23695617    2.1866205    35335.459 
 6220000   0.79470271  -0.24621013    2.1922036    35440.603 
 6230000    0.8035449  -0.24342675    2.2165175    35512.819 
 6240000   0.80296988    -0.228259    2.1858975    35315.086 
 6250000   0.79575499  -0.23419619    2.2150243    35574.143 
 6260000   0.79636287  -0.23782973    2.1830316    35369.191 
 6270000   0.79947708  -0.24035247    2.1870312    35387.519 
 6280000   0.80219368  -0.24527629    2.1897636        35296 
 6290000   0.79924311  -0.23346487     2.198873    35481.842 
 6300000   0.79714229  -0.24821367    2.2061669    35551.045 
 6310000   0.79987206  -0.24082066    2.1917445    35382.595 
 6320000   0.80233562  -0.23549468    2.1947181    35407.882 
 6330000   0.80025899   -0.2432218    2.1740696    35310.752 
 6340000   0.79971978  -0.24064684    2.1899953    35350.959 
 6350000   0.79717587  -0.23829788    2.2071798    35478.818 
 6360000    0.7953492  -0.24781611    2.1837362    35374.032 
 6370000   0.79308123  -0.24772014     2.181168    35329.942 
 6380000   0.80093368  -0.24580162    2.1850364    35388.994 
 6390000   0.79850749  -0.23443331    2.2001039    35397.911 
 6400000   0.80193356  -0.24134618    2.1939292    35369.437 
 6410000   0.79591143  -0.24036558    2.1816992    35334.249 
 6420000   0.79812869  -0.23983455    2.2013658    35461.689 
 6430000   0.80549852  -0.23859628    2.2057547    35413.159 
 6440000   0.80202935  -0.24029759    2.2101132    35457.664 
 6450000   0.80115907  -0.24504981    2.2039792    35428.935 
 6460000   0.79861685  -0.23880053    2.1935893    35383.306 
 6470000   0.79978045  -0.24282646    2.2039572    35457.974 
 6480000   0.80037172  -0.23563813    2.2115304        35545 
 6490000   0.80350991  -0.24169056    2.1930455    35405.521 
 6500000   0.80566417  -0.22879766    2.2126111    35498.141 
 6510000   0.79905994   -0.2485521    2.1956546    35460.387 
 6520000   0.80077376   -0.2400388     2.208419     35509.26 
 6530000    0.7971066  -0.23488658    2.2009678     35493.91 
 6540000   0.80562623  -0.23742542    2.2072466     35458.71 
 6550000   0.79525354  -0.24724842     2.191536     35458.15 
 6560000   0.79353132  -0.23550012    2.1824681    35416.794 
 6570000   0.79865658  -0.24093352     2.202133    35488.234 
 6580000   0.80053497  -0.23165823    2.2170645    35557.862 
 6590000   0.79847133  -0.23980507    2.1912258    35426.874 
 6600000   0.79761841  -0.25188209    2.1876159    35424.268 
 6610000   0.79647955  -0.23812333     2.192717    35408.392 
 6620000   0.79971842  -0.24630903    2.1860353    35337.549 
 6630000   0.80158955  -0.24097382    2.1853514    35300.653 
 6640000    0.8001409  -0.24529899    2.2098507     35501.47 
 6650000   0.80806985  -0.23515582     2.209237    35479.383 
 6660000   0.80227269   -0.2471061    2.2011258    35441.105 
 6670000   0.80086302   -0.2448929    2.1839883    35376.261 
 6680000   0.79904677  -0.25178623    2.1934825    35437.587 
 6690000      0.80109  -0.24729716    2.1843507    35386.467 
 6700000   0.80062985   -0.2390663    2.1982399    35505.639 
 6710000   0.79916787  -0.24056639    2.1890309     35399.91 
 6720000   0.80390707  -0.23659426    2.2041962    35437.488 
 6730000   0.80398667  -0.24106583    2.1914822    35372.524 
 6740000   0.79920866  -0.23985045    2.1931638    35400.652 
 6750000   0.80261832   -0.2506122     2.180502    35273.663 
 6760000   0.80023101  -0.23278239    2.1880879    35370.965 
 6770000   0.79058458  -0.24534027    2.1830306    35398.083 
 6780000   0.80489711  -0.23780418    2.2006351    35397.302 
 6790000   0.80284105  -0.23538791    2.1866114    35355.257 
 6800000   0.79966374  -0.23748348    2.1892657    35407.892 
 6810000    0.7955323  -0.23794765    2.1997173    35467.062 
 6820000   0.79792577   -0.2332628    2.2077982    35528.326 
 6830000   0.79931914  -0.23644555    2.1859867    35363.697 
 6840000   0.80451662  -0.23757438    2.1901892    35306.816 
 6850000   0.80134333  -0.23749608    2.2018949     35404.33 
 6860000    0.7960944  -0.23664052    2.1842232    35367.501 
 6870000   0.79466313  -0.23976881    2.1779957    35369.952 
 6880000   0.79929021   -0.2413352    2.2146499    35541.806 
 6890000   0.79482275  -0.24742613    2.1946657    35452.957 
 6900000   0.79963249  -0.23950737    2.1976347    35428.427 
 6910000   0.79943771  -0.24890419    2.1888172    35371.585 
 6920000   0.80209388  -0.23522251    2.2066118    35505.526 
 6930000   0.80280929  -0.24455171     2.194424    35398.128 
 6940000   0.80492376   -0.2437189    2.1991357    35373.378 
 6950000   0.80403889  -0.23632865    2.1977714    35401.952 
 6960000   0.79568661  -0.24102661    2.1876056    35356.084 
 6970000   0.79900394  -0.23598911    2.1826565    35362.798 
 6980000   0.80173296  -0.24627655    2.1903888     35377.85 
 6990000   0.79629135  -0.24039697     2.195015    35461.907 
 7000000   0.80558594   -0.2365944    2.2075249    35462.068 
Loop time of 4680.43 on 216 procs for 5000000 steps with 28900 atoms

Performance: 461495.974 tau/day, 1068.278 timesteps/s
99.9% CPU use with 216 MPI tasks x 1 OpenMP threads

MPI task timing breakdown:
Section |  min time  |  avg time  |  max time  |%varavg| %total
---------------------------------------------------------------
Pair    | 415.49     | 483.14     | 614.5      | 160.6 | 10.32
Bond    | 7.4457     | 9.5657     | 12.02      |  28.8 |  0.20
Neigh   | 662.19     | 692.54     | 722.49     |  46.8 | 14.80
Comm    | 992.61     | 1124.2     | 1245.4     | 153.2 | 24.02
Output  | 2.2277     | 2.2322     | 2.2752     |   0.2 |  0.05
Modify  | 1963.1     | 2109.1     | 2236.2     | 119.2 | 45.06
Other   |            | 259.6      |            |       |  5.55

Nlocal:    133.796 ave 255 max 105 min
Histogram: 27 127 34 12 9 2 2 1 0 2
Nghost:    973.509 ave 1281 max 839 min
Histogram: 8 54 65 38 31 8 6 4 1 1
Neighs:    4872.59 ave 12937 max 3434 min
Histogram: 81 97 18 7 6 2 2 1 1 1

Total # of neighbors = 1052479
Ave neighs/atom = 36.418
Ave special neighs/atom = 0.602076
Neighbor list builds = 693712
Dangerous builds = 28
System init for write_restart ...
Setting atom values ...
  9000 settings made for charge
Setting atom values ...
  9000 settings made for charge
Setting atom values ...
  5700 settings made for charge
Setting atom values ...
  1900 settings made for charge
System init for write_data ...
PPPM initialization ...
  using 12-bit tables for long-range coulomb (src/kspace.cpp:332)
  G vector (1/distance) = 1.25264
  grid = 128 128 128
  stencil order = 5
  estimated absolute RMS force accuracy = 0.00012515
  estimated relative force accuracy = 0.00012515
  using double precision FFTW3
  3d grid and FFT values/proc = 21952 11264
WARNING: Neighbor exclusions used with KSpace solver may give inconsistent Coulombic energies (src/neighbor.cpp:486)
Neighbor list info ...
  update every 1 steps, delay 0 steps, check yes
  max neighbors/atom: 2000, page size: 100000
  master list distance cutoff = 2.8
  ghost atom cutoff = 2.8
  binsize = 1.4, bins = 24 24 24
  2 neighbor lists, perpetual/occasional/extra = 2 0 0
  (1) pair lj/cut, perpetual
      attributes: half, newton on
      pair build: half/bin/newton
      stencil: half/bin/3d/newton
      bin: standard
  (2) pair coul/long, perpetual, skip from (1)
      attributes: half, newton on
      pair build: skip
      stencil: none
      bin: none
PPPM initialization ...
  using 12-bit tables for long-range coulomb (src/kspace.cpp:332)
  G vector (1/distance) = 1.25264
  grid = 128 128 128
  stencil order = 5
  estimated absolute RMS force accuracy = 0.00012515
  estimated relative force accuracy = 0.00012515
  using double precision FFTW3
  3d grid and FFT values/proc = 21952 11264
WARNING: Neighbor exclusions used with KSpace solver may give inconsistent Coulombic energies (src/neighbor.cpp:486)
Neighbor list info ...
  update every 1 steps, delay 0 steps, check yes
  max neighbors/atom: 2000, page size: 100000
  master list distance cutoff = 2.8
  ghost atom cutoff = 2.8
  binsize = 1.4, bins = 24 24 24
  2 neighbor lists, perpetual/occasional/extra = 2 0 0
  (1) pair lj/cut, perpetual
      attributes: half, newton on
      pair build: half/bin/newton
      stencil: half/bin/3d/newton
      bin: standard
  (2) pair coul/long, perpetual, skip from (1)
      attributes: half, newton on
      pair build: skip
      stencil: none
      bin: none
Setting up Verlet run ...
  Unit style    : lj
  Current step  : 7000000
  Time step     : 0.005
Per MPI rank memory allocation (min/avg/max) = 16.79 | 17.35 | 18.03 Mbytes
Step Temp Press TotEng Volume 
 7000000   0.80558594   -2.7293681    9.2636292    35462.068 
WARNING: FENE bond too long: 7000260 25311 25312 1.43432 (src/MOLECULE/bond_fene.cpp:90)
WARNING: FENE bond too long: 7000261 25311 25312 1.45123 (src/MOLECULE/bond_fene.cpp:90)
WARNING: FENE bond too long: 7000262 25311 25312 1.44645 (src/MOLECULE/bond_fene.cpp:90)
 7010000    0.7975463  -0.29943787     3.633004    35462.068 
 7020000   0.79771288  -0.25637641    3.5964775    35462.068 
 7030000   0.79708008  -0.22329984    3.5536618    35462.068 
 7040000   0.80760828  -0.14761785    3.5664405    35462.068 
 7050000    0.7968267  -0.19833021    3.5426341    35462.068 
 7060000   0.79373999  -0.17585393    3.5379674    35462.068 
 7070000   0.79449208  -0.17573544    3.5280364    35462.068 
 7080000   0.79620663  -0.23439603    3.5357515    35462.068 
 7090000   0.79916149  -0.22070152    3.5432057    35462.068 
 7100000   0.80269384 -0.075782636    3.5481442    35462.068 
 7110000   0.80070552  -0.17392558    3.5415537    35462.068 
 7120000   0.79746466  -0.10510461    3.5329009    35462.068 
 7130000   0.80506009    -0.181705     3.536809    35462.068 
 7140000   0.79809637  -0.11704791    3.5331329    35462.068 
 7150000   0.80456104   -0.1006013    3.5365924    35462.068 
 7160000   0.79482947  -0.14254395    3.5171402    35462.068 
 7170000    0.8004417  -0.15611911    3.5439021    35462.068 
 7180000   0.79391797  -0.13255921    3.5169294    35462.068 
 7190000   0.79756389  -0.13252481    3.5103022    35462.068 
 7200000   0.80166928  -0.13334334    3.5312309    35462.068 
 7210000   0.79789789  -0.15526802    3.5214031    35462.068 
 7220000   0.79718359  -0.12680377    3.5406065    35462.068 
 7230000   0.79713755  -0.13432592    3.5303282    35462.068 
 7240000   0.80571423  -0.13466372    3.5180004    35462.068 
 7250000   0.80402247   -0.1106484    3.5229408    35462.068 
 7260000   0.79874458  -0.17372729    3.5232288    35462.068 
 7270000   0.79693484   -0.1809208     3.514033    35462.068 
 7280000   0.79931894  -0.22878911    3.5059808    35462.068 
 7290000   0.79540277  -0.15376511    3.5189202    35462.068 
 7300000   0.79366986   -0.1151564    3.5106834    35462.068 
 7310000   0.79654787  -0.13844992    3.5345926    35462.068 
 7320000   0.79862618  -0.16247004    3.5286764    35462.068 
 7330000   0.79927961  -0.21174797    3.5243138    35462.068 
 7340000   0.79509921  -0.19036642    3.5322585    35462.068 
 7350000   0.80231611  -0.16786517    3.5224722    35462.068 
 7360000   0.79966557  -0.15750471    3.5285241    35462.068 
 7370000   0.79711329  -0.15363663    3.5246845    35462.068 
 7380000   0.80134559  -0.12421123    3.5320979    35462.068 
 7390000   0.79210189  -0.20756498    3.5033243    35462.068 
 7400000    0.8043131 -0.070180101    3.5313357    35462.068 
 7410000   0.79705265  -0.10038572    3.5039294    35462.068 
 7420000   0.79694881  -0.15183542     3.505483    35462.068 
 7430000   0.80016673  -0.11484922    3.5061163    35462.068 
 7440000   0.79747115 -0.063772771    3.5196968    35462.068 
 7450000    0.8028289  -0.17279045    3.5239283    35462.068 
 7460000   0.79861647 -0.082288262    3.5144019    35462.068 
 7470000   0.80251212  -0.16542924     3.521659    35462.068 
 7480000   0.79692137  -0.10775662    3.5094646    35462.068 
 7490000   0.79430889  -0.19580059    3.5021643    35462.068 
 7500000   0.79776533 -0.085873301    3.5118133    35462.068 
 7510000     0.797516  -0.19949222    3.5079876    35462.068 
 7520000   0.80082604  -0.11483466    3.5284422    35462.068 
 7530000   0.79486326 -0.097248049    3.5142363    35462.068 
 7540000   0.80117227  -0.10092804    3.5212128    35462.068 
 7550000   0.80733906  -0.11880083    3.5222422    35462.068 
 7560000   0.79306213  -0.16231338    3.5164618    35462.068 
 7570000   0.79940427  -0.13999508    3.5183131    35462.068 
 7580000   0.79304743  -0.12119299    3.5219331    35462.068 
 7590000   0.80728248 -0.098496503    3.5432924    35462.068 
 7600000   0.80380376  -0.17075719     3.518694    35462.068 
 7610000   0.80224795 -0.068472781    3.5226266    35462.068 
 7620000   0.80175212 -0.080665402    3.5171288    35462.068 
 7630000   0.80392364  -0.20801165    3.5229184    35462.068 
 7640000   0.80226213   -0.0979493    3.5416146    35462.068 
 7650000   0.80098148  -0.23611844    3.5302253    35462.068 
 7660000   0.79913054  -0.14927704    3.5194547    35462.068 
 7670000   0.80139529  -0.18453454    3.5249139    35462.068 
 7680000   0.80790808  -0.07677281    3.5396004    35462.068 
 7690000   0.79689169  -0.12886805    3.5142934    35462.068 
 7700000   0.80078531  -0.13036006    3.5182262    35462.068 
 7710000   0.80333615 -0.071229363    3.5050393    35462.068 
 7720000   0.80071201  -0.13118985    3.5292932    35462.068 
 7730000   0.80167374 -0.088437677    3.5179945    35462.068 
 7740000   0.79691419  -0.11564953    3.5100153    35462.068 
 7750000    0.7971298  -0.09011922    3.5027022    35462.068 
 7760000   0.79767484  -0.10417327    3.5080549    35462.068 
 7770000   0.79930752 -0.091937091     3.517366    35462.068 
 7780000    0.8021598  -0.14303976    3.5238371    35462.068 
 7790000   0.79633973  -0.14811919    3.5170714    35462.068 
 7800000   0.80267506  -0.11955365    3.5381653    35462.068 
 7810000   0.80083031 -0.062884378    3.5220984    35462.068 
 7820000   0.80392291  -0.12122909    3.5381179    35462.068 
 7830000   0.79523476  -0.23573474    3.5023054    35462.068 
 7840000   0.79743709  -0.12081839    3.5045167    35462.068 
 7850000   0.80089345  -0.12342026    3.5125619    35462.068 
 7860000   0.79587674 -0.065265245    3.5138058    35462.068 
 7870000   0.80029977  -0.19243697    3.5153285    35462.068 
 7880000   0.79820263  -0.12978357    3.5210984    35462.068 
 7890000   0.80380906 -0.094211889    3.5267846    35462.068 
 7900000   0.80420775 -0.052302603    3.5370416    35462.068 
 7910000    0.8011642  -0.18628535    3.5271188    35462.068 
 7920000   0.80333056  -0.11818473    3.5269887    35462.068 
 7930000   0.79906073  -0.13339977    3.5166401    35462.068 
 7940000   0.80672994 -0.086345183    3.5144154    35462.068 
 7950000   0.80546638  -0.14642076    3.5234618    35462.068 
 7960000   0.79498245 -0.097033094    3.5116952    35462.068 
 7970000   0.80044419  -0.15560234     3.527327    35462.068 
 7980000   0.80522679 -0.098126276    3.5330802    35462.068 
 7990000   0.80155587  -0.15626238     3.526192    35462.068 
 8000000   0.79447908  -0.15983113    3.5188614    35462.068 
 8010000   0.79714329 -0.095123923    3.5066777    35462.068 
 8020000   0.80819629  -0.11628405    3.5374848    35462.068 
 8030000   0.79964812 -0.046278778    3.5274794    35462.068 
 8040000   0.79579421 -0.095490986    3.5231554    35462.068 
 8050000   0.79499462  -0.12854761    3.5156776    35462.068 
 8060000   0.79838171  -0.16727322    3.5124706    35462.068 
 8070000   0.80087411 -0.090084325    3.5246584    35462.068 
 8080000   0.79367222  -0.18252624     3.519162    35462.068 
 8090000   0.80085233 -0.048173254    3.5107388    35462.068 
 8100000    0.7963167 -0.088503863    3.5025312    35462.068 
 8110000   0.79461201  -0.13392315    3.5042459    35462.068 
 8120000   0.81126972  -0.10765497    3.5337832    35462.068 
 8130000   0.79338118  -0.14405657     3.512444    35462.068 
 8140000   0.80355459  -0.12180557    3.5431273    35462.068 
 8150000   0.79306318   -0.1254701    3.5125658    35462.068 
 8160000   0.79759787 -0.088764792    3.5188547    35462.068 
 8170000    0.8005519 -0.086850631    3.5282923    35462.068 
 8180000   0.79527683  -0.15267213    3.5152441    35462.068 
 8190000    0.7971053 -0.095695673    3.5155215    35462.068 
 8200000   0.79777843 -0.099672681    3.5288665    35462.068 
 8210000   0.79557291  -0.12981705    3.4954101    35462.068 
 8220000   0.79682212  -0.16394909    3.5050621    35462.068 
 8230000   0.80229479  -0.15371798    3.5138889    35462.068 
 8240000   0.79766106  -0.10770517    3.5178845    35462.068 
 8250000   0.79868713  -0.16409801    3.5167778    35462.068 
 8260000   0.80057202 -0.099798011    3.5312695    35462.068 
 8270000   0.80444606 -0.098131834    3.5272006    35462.068 
 8280000   0.79733506  -0.12715229     3.509087    35462.068 
 8290000   0.79244458  -0.16043455    3.5226825    35462.068 
 8300000   0.80509407  -0.14574911     3.534756    35462.068 
 8310000   0.80187661  -0.13984217    3.5198559    35462.068 
 8320000   0.80285369  -0.18936006     3.518972    35462.068 
 8330000   0.79904817  -0.10767529    3.5123312    35462.068 
 8340000   0.79917993  -0.15137833    3.5249366    35462.068 
 8350000   0.80062312   -0.1398058    3.5082064    35462.068 
 8360000   0.80146571  -0.21963807    3.5117673    35462.068 
 8370000   0.79544211  -0.10926838     3.504119    35462.068 
 8380000   0.80139701  -0.16288797    3.5218308    35462.068 
 8390000   0.79518431  -0.11665192    3.5016815    35462.068 
 8400000    0.8040146  -0.12399345    3.5439897    35462.068 
 8410000   0.80203104  -0.11626608     3.524066    35462.068 
 8420000   0.80356587 -0.084562898     3.535285    35462.068 
 8430000    0.7958232 -0.052931695    3.5034234    35462.068 
 8440000   0.80293651  -0.11625718    3.5086201    35462.068 
 8450000   0.80635689  -0.12241397      3.51703    35462.068 
 8460000   0.79795659  -0.13859377    3.5194848    35462.068 
 8470000   0.80712651  -0.19272499    3.5163233    35462.068 
 8480000   0.80094115 -0.070021121    3.5243317    35462.068 
 8490000   0.80081966 -0.097273441    3.5096593    35462.068 
 8500000   0.80071915   -0.1368638    3.5111295    35462.068 
 8510000   0.79976484  -0.14334577    3.5100984    35462.068 
 8520000   0.80627679  -0.18604593    3.5269652    35462.068 
 8530000   0.80496553  -0.10156968    3.5194481    35462.068 
 8540000   0.80174784  -0.14188966    3.5064318    35462.068 
 8550000   0.79854676  -0.17051033    3.5056275    35462.068 
 8560000   0.79163019  -0.10507317    3.4995338    35462.068 
 8570000   0.79463025  -0.14418967    3.5031612    35462.068 
 8580000   0.80260427  -0.21291086     3.528883    35462.068 
 8590000    0.7968548 -0.086973081    3.5111101    35462.068 
 8600000   0.79674208 -0.088169329    3.5159149    35462.068 
 8610000    0.8032794  -0.12303163    3.5306679    35462.068 
 8620000   0.80229034 -0.083548524    3.5313306    35462.068 
 8630000   0.80400305  -0.13282199    3.5342077    35462.068 
 8640000    0.8009344  -0.05561615    3.5222736    35462.068 
 8650000   0.79966137 -0.049683329    3.5218363    35462.068 
 8660000   0.80290136  -0.10771527    3.5275158    35462.068 
 8670000    0.7952571  -0.16540019    3.5012123    35462.068 
 8680000   0.79572249    -0.161469    3.5120577    35462.068 
 8690000   0.80551252  -0.20624058    3.5085794    35462.068 
 8700000   0.80653997  -0.14046305    3.5248087    35462.068 
 8710000   0.80165064 -0.086775375    3.5127293    35462.068 
 8720000   0.80329842  -0.14791887    3.5245124    35462.068 
 8730000   0.80901421  -0.12805999    3.5148653    35462.068 
 8740000    0.7988246 -0.095291908    3.4999047    35462.068 
 8750000   0.79649763  -0.12144172    3.5093401    35462.068 
 8760000   0.80154599 -0.056365112    3.5129532    35462.068 
 8770000   0.80657632  -0.10303581    3.5417734    35462.068 
 8780000   0.80308933   -0.1531901    3.5181531    35462.068 
 8790000   0.79866514  -0.18484371    3.5157835    35462.068 
 8800000   0.79600998  -0.16969283    3.5106155    35462.068 
 8810000   0.80514888  -0.19020569    3.5074186    35462.068 
 8820000   0.80462384  -0.03081459    3.5298189    35462.068 
 8830000   0.80171112   -0.1635288    3.5118996    35462.068 
 8840000   0.79670079 -0.077593328    3.4956991    35462.068 
 8850000   0.80355602  -0.13028391    3.5198864    35462.068 
 8860000   0.80072865  -0.12384342     3.510516    35462.068 
 8870000   0.79566267  -0.11119057    3.5150821    35462.068 
 8880000   0.79344057   -0.1537287    3.5319186    35462.068 
 8890000   0.79602553    -0.131802    3.5107919    35462.068 
 8900000   0.80377745 -0.059504684    3.5151308    35462.068 
 8910000   0.80166028  -0.13629167    3.5148458    35462.068 
 8920000   0.79909453  -0.12298121    3.5190219    35462.068 
 8930000   0.80274417  -0.12222752    3.5303307    35462.068 
 8940000   0.80158982   -0.0372294    3.5162227    35462.068 
 8950000   0.79938162  -0.15172243    3.5132736    35462.068 
 8960000   0.80318747 -0.088614414     3.510797    35462.068 
 8970000   0.79716765  -0.14654628    3.5162773    35462.068 
 8980000   0.80404086  -0.10154603    3.5298419    35462.068 
 8990000   0.80210411 -0.073219213    3.5003075    35462.068 
 9000000   0.80144716  -0.10820601    3.5124807    35462.068 
 9010000   0.79878612   -0.1420589    3.5198104    35462.068 
 9020000   0.79727792  -0.17268545    3.5152785    35462.068 
 9030000   0.79258214  -0.14425815    3.5096421    35462.068 
 9040000    0.7973766  -0.12759684    3.5182651    35462.068 
 9050000    0.8061493 -0.042073977    3.5202218    35462.068 
 9060000    0.7987708  -0.15664638    3.4948037    35462.068 
 9070000   0.79756474  -0.10855312    3.5061836    35462.068 
 9080000   0.79957083   -0.1240879    3.5147902    35462.068 
 9090000    0.8007291  -0.17902316    3.5165315    35462.068 
 9100000    0.7979139 -0.090803196    3.5156757    35462.068 
 9110000   0.79719067 -0.083881444    3.5110595    35462.068 
 9120000   0.79383894  -0.11884648    3.5064444    35462.068 
 9130000   0.80169455  -0.14201722    3.5154385    35462.068 
 9140000   0.79389677  -0.15045055    3.5158168    35462.068 
 9150000   0.80108314  -0.18856443    3.5316678    35462.068 
 9160000   0.79159731  -0.14405152    3.5017324    35462.068 
 9170000   0.79658637  -0.14161526    3.5018613    35462.068 
 9180000   0.80149981 -0.089300991    3.5202663    35462.068 
 9190000   0.79821188   -0.1208887    3.5102537    35462.068 
 9200000   0.79973833  -0.10218929    3.5206482    35462.068 
 9210000   0.79630156  -0.12697771    3.4994192    35462.068 
 9220000   0.80075039  -0.19121574    3.5266306    35462.068 
 9230000   0.80597844  -0.12369798    3.5244573    35462.068 
 9240000   0.79787114  -0.12917805    3.5032198    35462.068 
 9250000   0.79831586  -0.12809435    3.5148661    35462.068 
 9260000   0.81223369  -0.10905872     3.528551    35462.068 
 9270000   0.79939912  -0.17377496    3.5116443    35462.068 
 9280000   0.80118856  -0.15806609    3.5287452    35462.068 
 9290000   0.80182672  -0.13402933    3.5070576    35462.068 
 9300000   0.80298306  -0.16927786    3.5274917    35462.068 
 9310000   0.80246628 -0.089825267    3.5225629    35462.068 
 9320000   0.80886457  -0.13575653    3.5248398    35462.068 
 9330000   0.79257861  -0.19401678    3.4988794    35462.068 
 9340000   0.79741438 -0.078803554    3.5140984    35462.068 
 9350000   0.79415934  -0.11521357      3.50671    35462.068 
 9360000   0.79928647  -0.14826947    3.5139965    35462.068 
 9370000   0.80199922 -0.060895589    3.5290729    35462.068 
 9380000   0.79655745 -0.090328408    3.5255223    35462.068 
 9390000   0.79878748   -0.1352911    3.5325332    35462.068 
 9400000   0.79854562  -0.18689128    3.5146209    35462.068 
 9410000   0.80299693 -0.098953539    3.4975592    35462.068 
 9420000   0.79935523  -0.15031873    3.5197211    35462.068 
 9430000   0.79319672  -0.11427717    3.4869212    35462.068 
 9440000    0.8028545  -0.13250548    3.5231719    35462.068 
 9450000    0.8023886 -0.060477059    3.5118919    35462.068 
 9460000   0.79792815  -0.10287371    3.5093151    35462.068 
 9470000   0.79212063  -0.17160099    3.5006473    35462.068 
 9480000   0.78873972  -0.11742193    3.4998137    35462.068 
 9490000   0.80023087  -0.14909953    3.5175285    35462.068 
 9500000   0.80582783 -0.075147155    3.5308096    35462.068 
 9510000   0.80268706  -0.17920712    3.5312519    35462.068 
 9520000   0.79942645  -0.18336685    3.5080048    35462.068 
 9530000   0.80169402  -0.15512171    3.5220251    35462.068 
 9540000   0.79903547  -0.13505797    3.5204329    35462.068 
 9550000   0.80497253 -0.096446654    3.5353869    35462.068 
 9560000   0.80215782  -0.13442786    3.5373833    35462.068 
 9570000    0.8056537 -0.054507062    3.5270506    35462.068 
 9580000   0.80498412  -0.16352092    3.5186267    35462.068 
 9590000   0.80927518   -0.1021126    3.5414787    35462.068 
 9600000   0.80320915 -0.085143284    3.5350316    35462.068 
 9610000   0.79733502   -0.1376261    3.5181954    35462.068 
 9620000    0.7952721 -0.063380095    3.5073948    35462.068 
 9630000   0.80199983   -0.1305287    3.5239871    35462.068 
 9640000   0.79337271  -0.12136605    3.5118131    35462.068 
 9650000   0.79293874 -0.088394541    3.4945029    35462.068 
 9660000   0.80356472   -0.1436948    3.5282994    35462.068 
 9670000   0.79397249  -0.15294981    3.5166646    35462.068 
 9680000   0.80307435   -0.1494684    3.5149128    35462.068 
 9690000   0.79839427  -0.19569442    3.5305687    35462.068 
 9700000   0.79963979  -0.11000213    3.5190316    35462.068 
 9710000   0.79926298 -0.093243656    3.5134004    35462.068 
 9720000   0.79308078  -0.13066295    3.4936757    35462.068 
 9730000   0.79889228  -0.16997655    3.5183022    35462.068 
 9740000   0.80039121  -0.14329344    3.5167859    35462.068 
 9750000   0.80552399  -0.13872553    3.5170126    35462.068 
 9760000    0.8039592  -0.17707003    3.5323774    35462.068 
 9770000   0.79450599  -0.11086177    3.5227413    35462.068 
 9780000   0.79870481  -0.11510713    3.5133532    35462.068 
 9790000   0.80188487  -0.12870728    3.5149012    35462.068 
 9800000   0.80124906  -0.07864852    3.5268096    35462.068 
 9810000   0.79854411  -0.13109214    3.5162467    35462.068 
 9820000   0.80327817 -0.092609452    3.5111772    35462.068 
 9830000   0.79776386  -0.11207982    3.5202568    35462.068 
 9840000   0.80681799 -0.094154011    3.5147268    35462.068 
 9850000   0.79535327  -0.15775333    3.5054952    35462.068 
 9860000   0.79906824 -0.096125108    3.5129525    35462.068 
 9870000   0.80067429   -0.1616963    3.5212062    35462.068 
 9880000    0.7968128  -0.13847734    3.5018375    35462.068 
 9890000   0.80268078  -0.14376216    3.5053674    35462.068 
 9900000   0.80107725 -0.022970606    3.5057739    35462.068 
 9910000   0.80245619 -0.041961592    3.5097298    35462.068 
 9920000   0.80115123  -0.12502617    3.5058314    35462.068 
 9930000   0.79734158 -0.087443574    3.5210782    35462.068 
 9940000   0.79833823 -0.092276173    3.5212125    35462.068 
 9950000   0.79904429  -0.17275229     3.499214    35462.068 
 9960000   0.80672061  -0.10084087    3.5195791    35462.068 
 9970000   0.80891911 -0.089709429    3.5253489    35462.068 
 9980000   0.80044679  -0.13419948    3.5201023    35462.068 
 9990000   0.79572636  -0.13871894    3.5099951    35462.068 
10000000   0.80446942  -0.18464182    3.5245382    35462.068 
10010000   0.79933184  -0.11557295    3.5127006    35462.068 
10020000   0.80295494  -0.14811886    3.5209312    35462.068 
10030000   0.79771505 -0.093618354    3.5155913    35462.068 
10040000   0.79632738  -0.11087205    3.5256951    35462.068 
10050000   0.79752901  -0.16824123    3.5225488    35462.068 
10060000   0.79487713  -0.15830798     3.532315    35462.068 
10070000   0.79583836 -0.086477868    3.5048705    35462.068 
10080000   0.80308908 -0.065778459    3.5031483    35462.068 
10090000   0.80054425  -0.17508277    3.5195221    35462.068 
10100000    0.8003904  -0.16570712     3.521094    35462.068 
10110000    0.8075674 -0.066939869    3.5260014    35462.068 
10120000   0.79815345  -0.17833831    3.5142316    35462.068 
10130000   0.80855611  -0.13156371    3.5303475    35462.068 
10140000   0.80240855  -0.17053538    3.5162414    35462.068 
10150000   0.80401215  -0.13376105    3.5319356    35462.068 
10160000   0.79371894  -0.11551743    3.5148909    35462.068 
10170000   0.80143054  -0.11287055    3.5053627    35462.068 
10180000   0.79346046  -0.11040511    3.5052755    35462.068 
10190000   0.79848791   -0.1579232    3.5053126    35462.068 
10200000   0.80031824 -0.080944551    3.5232968    35462.068 
10210000   0.79438783  -0.11053601    3.5009898    35462.068 
10220000   0.80200136  -0.12392234    3.5034115    35462.068 
10230000   0.79404072 -0.069721384    3.5021635    35462.068 
10240000   0.80275882  -0.10239276    3.5049961    35462.068 
10250000   0.79890684  -0.15453326    3.5188776    35462.068 
10260000   0.80142883  -0.05200862    3.4950476    35462.068 
10270000   0.80651549  -0.15659702    3.5205398    35462.068 
10280000   0.80386472  -0.10197144    3.5143286    35462.068 
10290000   0.80011421  -0.14947878    3.4973073    35462.068 
10300000   0.79588897  -0.13157779    3.5027434    35462.068 
10310000   0.81287112  -0.11352928    3.5331374    35462.068 
10320000   0.80100319 -0.061380752    3.5008029    35462.068 
10330000   0.79618625  -0.14878368    3.5087449    35462.068 
10340000    0.7950897 -0.066037255    3.5083619    35462.068 
10350000   0.79537111   -0.1265734    3.4975095    35462.068 
10360000   0.80230089  -0.16006995    3.5185922    35462.068 
10370000   0.80143898  -0.13575602    3.5293109    35462.068 
10380000   0.80400651 -0.099373264    3.5139658    35462.068 
10390000   0.80116701  -0.12164166    3.5080124    35462.068 
10400000   0.79984129 -0.090856287    3.5266781    35462.068 
10410000   0.80088941 -0.085480973    3.5180855    35462.068 
10420000   0.80090664 -0.091080729    3.5136008    35462.068 
10430000   0.80441234 -0.053667637    3.5166247    35462.068 
10440000   0.80036683  -0.10864617    3.4948779    35462.068 
10450000   0.79548173  -0.14430979     3.488648    35462.068 
10460000   0.79976404 -0.079971411    3.5087067    35462.068 
10470000   0.80133301  -0.15448806    3.5252943    35462.068 
10480000   0.80455142  -0.10822595    3.5119027    35462.068 
10490000   0.80415609 -0.048728911    3.5121318    35462.068 
10500000   0.80201387  -0.11655013    3.5123249    35462.068 
10510000   0.80192394  -0.13523895    3.5204729    35462.068 
10520000   0.80473064 -0.081152338    3.5223869    35462.068 
10530000   0.80068539 -0.086567652    3.5290326    35462.068 
10540000   0.79875465  -0.12380237    3.5146943    35462.068 
10550000   0.80079569  -0.16271535    3.5112387    35462.068 
10560000   0.80584541 -0.040761049    3.5192304    35462.068 
10570000   0.79750613  -0.13059698    3.5285866    35462.068 
10580000   0.80568026  -0.16231375    3.5179417    35462.068 
10590000   0.80274764   -0.1477812    3.5322272    35462.068 
10600000   0.79166493  -0.14564585    3.5088043    35462.068 
10610000     0.797495  -0.14859954    3.5089166    35462.068 
10620000   0.79787107 -0.066071598    3.5139075    35462.068 
10630000   0.80093485  -0.14150432    3.5027069    35462.068 
10640000   0.79775776  -0.11933727    3.5159718    35462.068 
10650000   0.80058693  -0.15810437    3.5261185    35462.068 
10660000   0.78984276   -0.1044822    3.4855096    35462.068 
10670000   0.79911692  -0.17376152    3.5127932    35462.068 
10680000   0.79920972  -0.15487029    3.5089539    35462.068 
10690000   0.80032158  -0.19991927    3.5170545    35462.068 
10700000   0.79638977  -0.16755453    3.4999254    35462.068 
10710000   0.79792047 -0.093437624    3.5017913    35462.068 
10720000   0.79701868 -0.063007377    3.5041889    35462.068 
10730000   0.80070991 -0.065687829    3.4990986    35462.068 
10740000   0.79850266 -0.076903886    3.5037991    35462.068 
10750000   0.79770489  -0.12590204    3.5024697    35462.068 
10760000   0.79846095  -0.10740864    3.4960055    35462.068 
10770000   0.80003541  -0.15393955    3.5135775    35462.068 
10780000   0.79279242 -0.092047438    3.5157195    35462.068 
10790000     0.806887  -0.16466206    3.5287473    35462.068 
10800000   0.80358129  -0.16884491    3.5281022    35462.068 
10810000   0.79044699   -0.1337754    3.4899206    35462.068 
10820000   0.80309104  -0.09538802    3.5129965    35462.068 
10830000   0.80065503  -0.12865782    3.5122216    35462.068 
10840000   0.80004848 -0.093572186     3.510219    35462.068 
10850000   0.79630963  -0.17702065    3.5146313    35462.068 
10860000   0.80089329  -0.13723576     3.522015    35462.068 
10870000   0.79963321  -0.18310393     3.523793    35462.068 
10880000   0.79589396  -0.12054884    3.5033358    35462.068 
10890000    0.7973285 -0.025755955    3.5039213    35462.068 
10900000   0.79410251  -0.12927806    3.4959935    35462.068 
10910000   0.79551822 -0.094204603    3.5129784    35462.068 
10920000   0.79995947  -0.13233308    3.5113744    35462.068 
10930000   0.79801527  -0.12213542    3.5074251    35462.068 
10940000   0.79796115  -0.13633689    3.5156999    35462.068 
10950000   0.80360084  -0.14537625    3.5105548    35462.068 
10960000   0.80045344  -0.10382983    3.5121081    35462.068 
10970000   0.80326811  -0.11372536    3.5028546    35462.068 
10980000   0.80470329   -0.1169351    3.5158713    35462.068 
10990000   0.79741598 -0.089616425    3.5008533    35462.068 
11000000   0.80526436  -0.14609521    3.5184987    35462.068 
11010000   0.79217984  -0.12725162    3.4890423    35462.068 
11020000   0.80204819 -0.083600366     3.522906    35462.068 
11030000   0.80439601  -0.15354878    3.5167487    35462.068 
11040000   0.79825372  -0.14120916    3.5116331    35462.068 
11050000    0.8012219 -0.018657885    3.5325621    35462.068 
11060000   0.80440862  -0.12326753    3.5267453    35462.068 
11070000   0.80024875  -0.20383972     3.508036    35462.068 
11080000   0.81022405  -0.13267065    3.5281769    35462.068 
11090000   0.79851071 -0.084893091    3.4962956    35462.068 
11100000   0.79970732   -0.0751154    3.5300187    35462.068 
11110000   0.80184732  -0.17068089    3.4989716    35462.068 
11120000   0.80062039  -0.12441679    3.5250288    35462.068 
11130000   0.79792161  -0.16252691    3.5113766    35462.068 
11140000   0.80171962  -0.18894012    3.5268892    35462.068 
11150000   0.79589684 -0.082759366    3.5158289    35462.068 
11160000   0.80770419  -0.17192254    3.5214326    35462.068 
11170000   0.79990287   -0.0928533    3.5262986    35462.068 
11180000   0.80095267   -0.1185112    3.5133738    35462.068 
11190000   0.80223521  -0.17260102    3.5029076    35462.068 
11200000   0.79703986  -0.12481166    3.5030704    35462.068 
11210000   0.79877096  -0.12948718    3.5127607    35462.068 
11220000   0.80089743  -0.12700211    3.5175756    35462.068 
11230000   0.79490683  -0.11282568    3.5078595    35462.068 
11240000   0.80218572  -0.13555761    3.5120897    35462.068 
11250000   0.79379931  -0.11740062    3.4943712    35462.068 
11260000   0.79878474  -0.11437536    3.5014029    35462.068 
11270000   0.79968144  -0.11797617    3.5062191    35462.068 
11280000   0.79493025   -0.1780534    3.5052836    35462.068 
11290000   0.79468422  -0.15738903    3.4942682    35462.068 
11300000   0.79663128 -0.063727621    3.5072782    35462.068 
11310000   0.80063541  -0.17458692    3.5089392    35462.068 
11320000   0.79952299  -0.10383633    3.5087705    35462.068 
11330000   0.79757451  -0.16909198    3.5136082    35462.068 
11340000   0.80708398  -0.18491229    3.5129086    35462.068 
11350000    0.7998847  -0.11028864    3.5041843    35462.068 
11360000   0.80392701  -0.13723279    3.5057927    35462.068 
11370000   0.79004771 -0.093212287    3.5024676    35462.068 
11380000   0.80229428  -0.17728271    3.5134031    35462.068 
11390000   0.79637821  -0.13766368    3.5071693    35462.068 
11400000   0.80278152  -0.25251268     3.508282    35462.068 
11410000   0.80646125  -0.11015054    3.5339515    35462.068 
11420000   0.79726355 -0.054067537    3.5070466    35462.068 
11430000   0.79798249  -0.13282915    3.5151946    35462.068 
11440000     0.797347  -0.13525285    3.5141526    35462.068 
11450000   0.79857362  -0.13717426    3.5174964    35462.068 
11460000   0.80641762  -0.14547457    3.5304011    35462.068 
11470000   0.79526538  -0.19271713    3.5040977    35462.068 
11480000   0.79837904  -0.14175084    3.5174237    35462.068 
11490000   0.80078459 -0.098300924    3.5168031    35462.068 
11500000    0.8006665  -0.12107905    3.5100633    35462.068 
11510000   0.79855667  -0.12289524    3.5111095    35462.068 
11520000   0.80571401  -0.14227965    3.5166826    35462.068 
11530000   0.79986964 -0.099308394     3.533351    35462.068 
11540000   0.79315453  -0.15033999    3.4978512    35462.068 
11550000    0.7998163  -0.19492127    3.5081838    35462.068 
11560000   0.79708477  -0.15753734    3.4985038    35462.068 
11570000    0.7977231  -0.10080425    3.5063423    35462.068 
11580000   0.79949003 -0.059708475    3.5100084    35462.068 
11590000   0.79778316  -0.15129655    3.5133603    35462.068 
11600000   0.80112478  -0.14944229    3.5044992    35462.068 
11610000   0.79683263  -0.16414288    3.5010767    35462.068 
11620000   0.80268251 -0.086170009    3.5125966    35462.068 
11630000   0.80252268 -0.061371309    3.5210221    35462.068 
11640000   0.80624221  -0.10067745    3.5236857    35462.068 
11650000   0.80169146  -0.13529916    3.5106073    35462.068 
11660000   0.80303133  -0.11605393    3.5145746    35462.068 
11670000   0.80210401  -0.12335454     3.518661    35462.068 
11680000   0.79543224  -0.10226673     3.502293    35462.068 
11690000   0.80206107  -0.11230443    3.5232607    35462.068 
11700000   0.80145239 -0.046264664    3.5145565    35462.068 
11710000   0.80114896 -0.087599728    3.5310615    35462.068 
11720000   0.79328311  -0.13308424    3.4961508    35462.068 
11730000   0.79827523 -0.099944809    3.5236796    35462.068 
11740000   0.79184025 -0.074858465    3.5002739    35462.068 
11750000   0.80682441   -0.1273048    3.5310369    35462.068 
11760000   0.80580075  -0.12602638    3.5227539    35462.068 
11770000   0.80380334 -0.073062207    3.5081832    35462.068 
11780000   0.79996896  -0.14232948    3.5103323    35462.068 
11790000   0.80151378  -0.12013207    3.5109484    35462.068 
11800000   0.80416226  -0.08250846     3.520456    35462.068 
11810000   0.80272528  -0.14439354    3.5133514    35462.068 
11820000   0.80580771 -0.058909507    3.5194822    35462.068 
11830000   0.80229143  -0.13606555    3.5200533    35462.068 
11840000   0.80400451  -0.10504616    3.5248245    35462.068 
11850000   0.80481589 -0.094897479    3.5256123    35462.068 
11860000   0.80375861 -0.076941469    3.5081763    35462.068 
11870000   0.80096331  -0.10112323    3.5226266    35462.068 
11880000   0.79889407  -0.19702806    3.5345501    35462.068 
11890000   0.80132675  -0.10851805    3.5210957    35462.068 
11900000   0.79488011  -0.16092528    3.5060014    35462.068 
11910000   0.80017318 -0.072260001    3.5033808    35462.068 
11920000   0.79952917   -0.1570481    3.5184453    35462.068 
11930000   0.80862557  -0.14999884    3.5250779    35462.068 
11940000   0.79004851  -0.09173216    3.4960039    35462.068 
11950000   0.80028153  -0.15938712     3.521149    35462.068 
11960000    0.7968818  -0.18473412     3.522506    35462.068 
11970000   0.80336825  -0.12652122     3.529657    35462.068 
11980000   0.80893795  -0.11842062    3.5322975    35462.068 
11990000   0.80526568 -0.071673184    3.5197477    35462.068 
12000000   0.79752379  -0.15610103    3.5132569    35462.068 
Loop time of 83314.6 on 216 procs for 5000000 steps with 28900 atoms

Performance: 25925.819 tau/day, 60.013 timesteps/s
99.8% CPU use with 216 MPI tasks x 1 OpenMP threads

MPI task timing breakdown:
Section |  min time  |  avg time  |  max time  |%varavg| %total
---------------------------------------------------------------
Pair    | 1006.5     | 1286.8     | 1681.5     | 301.8 |  1.54
Bond    | 7.6504     | 11.119     | 15.473     |  33.0 |  0.01
Kspace  | 75680      | 76532      | 77212      | 104.0 | 91.86
Neigh   | 731.36     | 770.13     | 803.96     |  52.6 |  0.92
Comm    | 1427.7     | 1855.3     | 2732.6     | 521.9 |  2.23
Output  | 3.9651     | 3.9667     | 4.0226     |   0.2 |  0.00
Modify  | 2206.5     | 2395.5     | 2602       | 176.8 |  2.88
Other   |            | 459.7      |            |       |  0.55

Nlocal:    133.796 ave 250 max 4 min
Histogram: 3 3 5 7 56 101 22 14 4 1
Nghost:    973.537 ave 1249 max 246 min
Histogram: 1 0 2 5 8 12 42 90 42 14
Neighs:    5224.29 ave 14599 max 10 min
Histogram: 8 9 48 94 26 19 4 6 1 1

Total # of neighbors = 1128446
Ave neighs/atom = 39.0466
Ave special neighs/atom = 0.602076
Neighbor list builds = 671890
Dangerous builds = 0
System init for write_restart ...
PPPM initialization ...
  using 12-bit tables for long-range coulomb (src/kspace.cpp:332)
  G vector (1/distance) = 1.25264
  grid = 128 128 128
  stencil order = 5
  estimated absolute RMS force accuracy = 0.00012515
  estimated relative force accuracy = 0.00012515
  using double precision FFTW3
  3d grid and FFT values/proc = 21952 11264
WARNING: Neighbor exclusions used with KSpace solver may give inconsistent Coulombic energies (src/neighbor.cpp:486)
Neighbor list info ...
  update every 1 steps, delay 0 steps, check yes
  max neighbors/atom: 2000, page size: 100000
  master list distance cutoff = 2.8
  ghost atom cutoff = 2.8
  binsize = 1.4, bins = 24 24 24
  2 neighbor lists, perpetual/occasional/extra = 2 0 0
  (1) pair lj/cut, perpetual
      attributes: half, newton on
      pair build: half/bin/newton
      stencil: half/bin/3d/newton
      bin: standard
  (2) pair coul/long, perpetual, skip from (1)
      attributes: half, newton on
      pair build: skip
      stencil: none
      bin: none
Total wall time: 24:46:22
