1425
Atoms. Timestep: 0
H 3.346350 5.738200 11.331900
H 3.338530 5.726810 11.344600
H 1.567780 5.176120 12.053600
H 1.541220 5.170600 12.023000
H 0.655369 5.643570 12.197800
H 0.627148 5.641070 12.145200
H 2.533660 5.201990 11.730000
H 2.552740 5.210750 11.736700
H 1.833670 7.043520 11.385300
H 1.838580 7.049940 11.409000
H 2.436930 7.744740 11.005400
H 2.430180 7.753130 11.014600
H 2.787270 6.833530 11.178500
H 2.786920 6.823980 11.177700
H 3.740180 6.604440 10.970100
H 3.735950 6.617120 10.947900
H 3.630980 7.599720 10.706900
H 3.617160 7.612020 10.687400
H 1.483670 7.964280 11.213000
H 1.133680 8.885050 11.040700
H 1.124410 8.889140 11.081400
H 2.126110 8.916430 10.747600
H 2.109380 8.923770 10.764500
H 1.481500 7.969540 11.245200
H 3.040190 8.445970 10.625400
H 3.021790 8.456320 10.620300
H 0.889892 7.266350 11.639600
H 0.880412 7.263060 11.592900
H 1.230410 6.342290 11.765300
H 1.246970 6.346760 11.803400
H 2.195660 6.130350 11.572800
H 2.183660 6.122750 11.557700
H 33.027900 8.360230 11.426100
H 32.735400 6.487310 12.063800
H 32.759100 6.487860 12.130600
H 32.640300 7.482770 11.870200
H 32.626200 7.482600 11.800600
H 33.029900 8.361690 11.486100
H 5.426110 7.693540 25.563300
H 5.369260 7.729860 25.622400
H 4.903240 7.545440 27.488100
H 4.890740 7.572880 27.558000
H 4.925760 7.522150 26.453300
H 4.887550 7.559340 26.522800
H 5.806140 7.897090 27.240900
H 5.794000 7.909560 27.291900
H 5.364580 7.757180 28.390400
H 5.377990 7.766840 28.450600
H 4.855630 11.231700 29.282100
H 4.845410 11.261100 29.250900
H 3.643180 10.517700 30.703500
H 3.627930 10.546500 30.667600
H 4.076780 10.793400 29.804700
H 4.064730 10.822500 29.770500
H 5.365270 11.400400 31.208700
H 5.348070 11.429300 31.179400
H 4.721030 11.096900 30.506700
H 4.706400 11.125900 30.474900
H 3.671010 10.478600 31.737600
H 3.652030 10.507000 31.701900
H 4.130590 10.714700 32.596100
H 4.152820 10.686500 32.630100
H 4.518140 10.939500 31.473200
H 4.935370 11.113800 33.110700
H 4.500050 10.968200 31.440600
H 5.162380 11.243000 32.175200
H 4.959500 11.085600 33.141700
H 5.141720 11.271500 32.145100
H 5.135740 16.808300 10.901200
H 5.655120 16.162600 10.353200
H 5.701520 16.167700 10.317000
H 5.097490 16.809700 10.938100
H 5.848960 16.871400 11.921700
H 5.870560 16.854400 11.898100
H 5.760770 11.744800 29.248000
H 5.771040 11.715200 29.275800
H 5.554420 11.587000 30.213700
H 5.568150 11.557800 30.242200
H 5.874900 11.569200 33.135300
H 5.850730 11.597400 33.107900
H 5.989740 11.732600 31.883800
H 5.321310 17.628100 12.749300
H 5.330930 17.601300 12.726900
H 4.975300 17.346100 11.815100
H 5.000090 17.333100 11.783300
H 1.686610 19.515600 12.853800
H 1.625300 19.515600 12.837800
H 1.780370 20.481300 12.629200
H 1.809650 20.486400 12.647800
H 0.680086 19.935900 12.796100
H 0.728079 19.904800 12.814800
H 2.711080 19.646600 12.782400
H 2.653620 19.612900 12.767800
H 3.526980 20.262800 12.619700
H 3.489500 20.201500 12.604700
H 1.158410 22.069600 12.328600
H 1.012510 21.083600 12.558800
H 1.003340 21.104000 12.537200
H 1.932700 21.457200 12.441800
H 1.935440 21.446900 12.420600
H 1.135550 22.054400 12.352800
H 3.799640 22.132800 12.187500
H 2.712470 20.824200 12.512700
H 3.915690 21.199000 12.409400
H 2.729840 20.860000 12.530800
H 3.908980 21.123900 12.392300
H 2.867540 21.789800 12.304100
H 2.852880 21.830800 12.324700
H 3.773070 22.204400 12.207700
H 2.302900 20.144100 16.340300
H 2.373070 20.078800 16.318400
H 3.999160 20.433300 16.538100
H 4.058640 20.417500 16.528500
H 3.238090 19.510100 16.330400
H 3.151550 19.551100 16.339700
H 4.267120 19.445100 16.423700
H 4.179090 19.456300 16.423100
H 5.110210 19.885000 16.568100
H 5.184410 19.901200 16.573000
H 1.860560 21.076300 16.424700
H 1.903840 20.998800 16.390700
H 1.943040 22.098000 16.570200
H 1.956120 22.023500 16.528000
H 3.850160 21.389900 16.633300
H 3.819220 21.410200 16.653000
H 3.061060 20.777100 16.496700
H 3.111620 20.734300 16.475800
H 2.881130 21.754100 16.611600
H 2.903140 21.706700 16.580700
H 5.796470 21.781000 16.875900
H 4.797180 21.073100 16.685900
H 4.577380 22.043200 16.809400
H 4.588700 22.045400 16.790800
H 4.757320 21.066300 16.694500
H 5.744200 20.756200 16.738600
H 5.695410 20.722400 16.735900
H 5.777890 21.744100 16.881400
H 1.087840 18.018100 18.444900
H 1.100950 18.007400 18.438800
H 0.594081 18.705600 17.848700
H 0.605106 18.702000 17.852700
H 1.119190 17.376400 19.259400
H 1.102020 17.394800 19.271400
H 0.632818 17.002700 20.106800
H 0.654925 16.978300 20.094700
H 3.656720 19.546300 20.815000
H 3.653960 19.581000 20.798800
H 3.637570 19.613900 20.803100
H 2.909910 20.262300 20.778200
H 2.912180 20.352000 20.774100
H 2.921920 20.311900 20.757500
H 4.129090 20.435400 21.009300
H 4.116740 20.410700 21.017900
H 5.110880 20.427900 21.199100
H 5.623750 19.571600 21.175800
H 5.605830 19.578600 21.156300
H 4.650050 19.293400 20.960500
H 4.623510 19.330800 20.943000
H 4.640630 19.308000 20.952800
H 4.616750 20.321400 21.079900
H 5.617540 19.566000 21.178400
H 5.100250 20.423300 21.198300
H 2.836610 22.243900 21.038700
H 2.898650 22.333100 21.047700
H 4.097560 22.151700 21.240400
H 4.053260 22.126800 21.243500
H 3.761080 20.832000 20.995400
H 2.609730 21.249700 20.860100
H 2.641720 21.347300 20.863600
H 2.640640 21.304800 20.840100
H 3.754320 21.822500 21.132200
H 3.622430 21.297300 21.029900
H 3.593240 21.262400 21.040500
H 2.885500 22.293700 21.024400
H 4.609980 21.311900 21.216700
H 5.465650 20.801400 21.301200
H 4.576750 21.275100 21.220900
H 5.079350 22.144100 21.430300
H 5.036770 22.139500 21.423900
H 5.560270 21.287700 21.401300
H 5.458880 21.791900 21.438000
H 4.603220 22.302500 21.353600
H 5.586010 21.282200 21.409600
H 4.604220 21.289800 21.219800
H 1.000520 22.035600 24.895700
H 0.969551 22.026200 24.805600
H 5.739870 22.169700 25.466800
H 5.773440 22.197300 25.446000
H 5.694740 21.372100 27.522800
H 4.617610 21.506200 26.924700
H 5.761160 21.737000 26.627900
H 4.590240 21.509700 26.964400
H 4.946870 21.877300 26.064700
H 4.978110 21.891000 26.033800
H 5.670490 21.381000 27.558000
H 5.789520 21.744600 26.599600
H 2.214210 17.628200 29.100500
H 1.394860 17.963900 28.564000
H 0.848629 18.634000 29.452000
H 4.765540 21.165400 27.924800
H 5.425810 20.936600 28.688700
H 5.445110 20.907000 28.644100
H 4.788540 21.146100 27.880100
H 1.696830 18.192100 29.744100
H 2.027660 18.314200 30.679900
H 2.756290 17.594700 29.981800
H 2.875860 17.872400 30.972000
H 0.662082 19.320000 31.031400
H 1.510280 18.878200 31.323500
H 1.179460 18.756100 30.387800
H 2.540880 18.386900 31.805600
H 0.964050 19.548200 32.211500
H 1.841110 19.000300 32.259300
H 1.217260 23.281000 12.073500
H 1.154310 23.267700 12.101100
H 2.055740 22.428000 12.235800
H 2.090510 22.412500 12.212100
H 2.245580 23.378200 12.003500
H 2.178780 23.398800 12.029700
H 3.190800 22.957900 12.045200
H 3.137310 23.009500 12.068800
H 3.639290 22.387100 16.768000
H 3.641680 22.362300 16.738100
H 3.459360 23.364100 16.882900
H 2.515900 22.878600 16.693500
H 2.528240 22.935400 16.738000
H 3.433200 23.334700 16.842900
H 4.486900 23.269200 16.966300
H 5.335540 22.676300 16.965800
H 5.327240 22.701000 16.948200
H 4.462220 23.269700 16.936200
H 1.219780 24.853600 20.186800
H 1.199960 24.832700 20.254900
H 0.950884 25.801200 20.248100
H 0.562305 25.853900 19.865900
H 0.701807 26.769600 20.241300
H 0.697068 26.784000 20.207600
H 3.614130 23.045300 21.277200
H 3.590890 23.013600 21.261100
H 3.529760 22.978500 21.266000
H 4.596450 23.293100 21.490400
H 4.503450 23.256700 21.481300
H 4.567810 23.271500 21.486700
H 5.496790 23.003900 21.626800
H 5.554480 22.998500 21.640700
H 5.582400 23.010000 21.630300
H 1.871960 25.300600 20.855200
H 1.857460 25.283100 20.915700
H 0.831830 27.714000 20.549400
H 1.284510 26.042300 20.531400
H 2.150290 27.151400 21.566500
H 2.205300 26.131800 21.395800
H 2.209320 26.145100 21.350000
H 2.141480 27.160700 21.538700
H 1.419270 26.972300 20.873200
H 1.453550 26.450700 20.818600
H 1.204480 27.419200 20.811800
H 1.669610 22.695900 25.170500
H 0.964266 23.272400 24.826300
H 1.982410 23.670600 25.325100
H 1.995400 23.707800 25.358400
H 0.946968 23.265000 24.778100
H 1.693300 22.725000 25.237100
H 1.030550 24.270200 24.821200
H 1.024230 24.261600 24.806900
H 1.825860 24.720600 25.227000
H 1.824130 24.689100 25.228000
H 1.230120 25.492000 24.878100
H 1.237180 25.478500 24.905300
H 1.707150 28.068700 21.382200
H 0.966592 28.644100 20.891200
H 0.994633 28.638000 20.892200
H 1.686610 28.075500 21.370700
H 11.228700 5.536590 11.291500
H 10.203100 5.536800 11.432300
H 11.239800 5.574790 11.288000
H 10.214200 5.576660 11.429200
H 9.027960 2.675870 16.851100
H 9.068350 2.701890 16.868100
H 9.854400 2.573120 16.236000
H 9.901380 2.588150 16.264000
H 10.736100 2.952610 15.848200
H 10.787000 2.960830 15.878600
H 10.398300 3.662720 16.465900
H 10.442400 3.682160 16.479300
H 11.436700 3.712650 15.791300
H 10.957100 4.532960 16.585300
H 10.914600 4.511210 16.582300
H 9.544240 3.524350 16.967400
H 8.511150 3.271580 17.529000
H 8.478190 3.233310 17.528400
H 9.583050 3.552690 16.974100
H 8.379070 4.144550 18.069600
H 8.352410 4.096090 18.086600
H 9.408460 5.846150 18.281600
H 9.384970 5.793060 18.319300
H 9.206460 4.234470 17.585200
H 9.238410 4.274020 17.574800
H 8.707510 5.086910 18.345100
H 8.684310 5.033030 18.376100
H 9.753100 5.124820 17.680800
H 10.060500 4.372840 17.083700
H 10.097700 4.403490 17.080100
H 9.722740 5.082950 17.701500
H 10.576800 5.221320 17.200000
H 10.612400 5.254290 17.186100
H 9.644340 7.423080 7.517860
H 9.648460 7.435960 7.519120
H 10.285700 6.682440 7.206270
H 10.282300 6.674680 7.194330
H 10.861600 7.483850 7.293010
H 10.866600 7.491320 7.297690
H 11.234300 6.362400 6.942420
H 11.230700 6.359920 6.923680
H 9.487710 8.404570 7.807580
H 9.493200 8.421060 7.797120
H 10.464300 8.348790 7.599640
H 10.470300 8.360630 7.593120
H 11.043500 9.157950 7.698320
H 11.051100 9.169500 7.684540
H 11.440800 8.293010 7.391690
H 9.861570 9.373760 7.965800
H 9.854410 9.356170 7.985870
H 10.654900 10.038800 7.979960
H 10.646200 10.022900 8.004940
H 8.871810 6.932060 12.029800
H 8.857580 6.891630 12.027400
H 9.335170 6.032780 11.701700
H 9.347470 6.073450 11.700700
H 9.860880 7.673080 12.122100
H 9.845040 7.635130 12.117100
H 10.807100 7.423750 11.915800
H 10.791800 7.387040 11.911900
H 10.077300 6.748600 11.808200
H 10.063500 6.709910 11.806800
H 11.023500 6.499270 11.601900
H 11.010300 6.461810 11.601700
H 8.898270 7.883220 12.322200
H 8.914690 7.922420 12.328400
H 9.464640 8.779160 12.516400
H 9.446330 8.741860 12.507000
H 10.573400 8.312260 12.222200
H 10.374300 9.272720 12.543500
H 10.354900 9.237480 12.532400
H 10.590700 8.348230 12.229600
H 11.399900 9.270850 12.402400
H 11.380600 9.237270 12.391500
H 11.127100 6.105080 17.292100
H 11.093100 6.069810 17.316400
H 10.294100 6.218830 17.896200
H 10.266600 6.172550 17.931400
H 6.206820 8.038740 25.098100
H 7.175780 8.403210 25.090300
H 7.231920 8.396840 25.068900
H 6.270220 8.013700 25.056600
H 8.053500 8.740300 25.596900
H 8.016530 8.725630 25.601200
H 6.033260 7.988050 26.324200
H 6.936520 8.324720 26.058100
H 6.970480 8.322790 26.031300
H 6.067580 7.971140 26.278500
H 7.350510 8.526340 27.708800
H 7.361260 8.504420 27.727600
H 6.709040 8.248740 26.993600
H 7.600520 8.582910 26.759900
H 7.611940 8.600390 26.746400
H 6.697260 8.246230 27.025900
H 8.503780 8.919590 26.493800
H 8.514840 8.952040 26.499200
H 8.492320 8.975330 27.534000
H 8.506970 8.933120 27.529000
H 6.458000 8.167740 27.993700
H 6.447610 8.174690 27.956000
H 7.187700 8.453720 28.953700
H 7.147860 8.483780 28.930700
H 6.186170 8.100640 28.918400
H 6.218740 8.089250 28.961500
H 7.991970 8.803940 28.424000
H 8.025260 8.762600 28.429400
H 9.971410 13.011500 1.811700
H 9.960520 13.031800 1.821240
H 9.963950 13.022600 1.819020
H 9.311230 13.393800 1.106340
H 9.320200 13.368600 1.090480
H 9.290370 13.394300 1.120340
H 9.957060 14.137700 1.278310
H 9.935280 14.143100 1.273330
H 9.957740 14.120500 1.258660
H 10.695400 14.015500 1.941590
H 10.688500 14.029800 1.921320
H 10.692500 14.012600 1.928310
H 10.595300 14.872300 1.426830
H 10.602900 14.881500 1.450280
H 10.580200 14.891900 1.426320
H 11.341200 14.759300 2.113560
H 11.333400 14.778500 2.074310
H 11.330100 14.764500 2.096480
H 9.860490 14.980200 0.757171
H 9.827020 15.005200 0.778330
H 9.864570 15.003700 0.787002
H 10.471900 15.754000 0.931319
H 10.498000 15.732000 0.925342
H 10.510400 15.747600 0.958971
H 11.219200 16.733100 1.041950
H 11.232800 15.624100 1.595000
H 11.241900 16.740500 1.081540
H 11.225100 15.640700 1.579310
H 11.199900 16.752000 1.031400
H 11.248700 15.625400 1.622250
H 10.787900 13.149400 2.432900
H 10.789800 13.152900 2.429800
H 10.796700 13.167600 2.416320
H 8.370150 16.492400 3.664070
H 8.359170 16.476500 3.681590
H 8.079530 15.615400 4.131310
H 8.078160 15.593800 4.144010
H 7.765730 15.084600 4.989530
H 7.760660 15.114500 4.979360
H 7.733240 16.036400 5.782670
H 7.736550 16.071200 5.766740
H 7.498980 15.123800 5.980980
H 7.505600 15.085300 5.991590
H 8.019520 16.290600 4.858880
H 8.026820 16.317000 4.841910
H 11.162200 15.123500 5.832960
H 10.870500 14.752600 6.754480
H 10.714700 14.891800 7.768450
H 7.367450 15.595600 6.881690
H 7.364620 15.640800 6.867780
H 7.393560 16.527000 7.402160
H 7.388310 16.478900 7.421330
H 7.683830 16.772800 6.477330
H 7.674600 16.733100 6.497540
H 11.377500 16.656300 7.099550
H 11.046100 15.774100 7.434000
H 11.269900 15.889900 6.466260
H 10.736500 15.503800 8.603190
H 11.153800 16.540400 8.067290
H 10.930000 16.424600 9.035030
H 7.402440 15.213200 10.566300
H 6.188870 16.279700 11.190700
H 6.221270 16.271700 11.165000
H 6.545830 15.582800 10.187300
H 6.498800 15.578300 10.217100
H 7.062530 15.804900 11.297300
H 7.091730 15.793100 11.279800
H 7.442440 15.210400 10.546700
H 8.151110 15.150200 11.299000
H 8.123930 15.165200 11.307200
H 6.722620 16.396700 12.028200
H 7.596280 15.921900 12.134800
H 7.611480 15.897100 12.127800
H 7.256370 16.513700 12.865800
H 7.260770 16.479800 12.860900
H 6.741020 16.375800 12.013000
H 8.469940 15.447200 12.241300
H 8.481940 15.418400 12.242600
H 8.347760 15.983600 13.118300
H 8.346300 15.943200 13.124700
H 7.780520 16.583800 13.708900
H 7.790120 16.630700 13.703300
H 6.565550 12.143800 29.762700
H 6.577720 12.114400 29.787400
H 7.044110 12.351500 30.656900
H 7.059530 12.322200 30.679800
H 6.212400 11.861300 30.944300
H 6.196090 11.890400 30.918100
H 6.631410 12.036000 32.588300
H 6.653750 12.007500 32.612700
H 7.068220 12.312000 31.691100
H 7.087360 12.283100 31.714000
H 6.009510 11.703900 31.910700
H 8.965820 14.158100 33.200500
H 9.010640 14.128700 33.158400
H 9.004610 14.163700 33.184900
H 9.585490 16.018200 32.805600
H 9.126250 15.125900 32.822800
H 9.073850 15.118500 32.829400
H 9.125690 15.088000 32.786600
H 10.400800 16.591700 33.122900
H 10.417900 16.613700 33.166700
H 10.363700 16.616100 33.135400
H 9.634520 15.989500 32.773600
H 9.643560 16.022700 32.816100
H 10.885700 19.796600 1.646370
H 10.963500 20.806700 2.360180
H 10.772000 21.793400 1.635040
H 10.779600 20.790700 1.377370
H 8.554650 17.510300 3.702840
H 8.533450 17.496000 3.726180
H 11.261000 18.826100 3.354320
H 11.061900 19.077500 2.369990
H 11.104600 19.950200 2.856490
H 11.288600 19.966200 3.839300
H 11.147400 20.822800 3.342990
H 11.006200 21.679400 2.846680
H 11.190200 21.695400 3.829490
H 7.974110 17.018700 5.552500
H 8.554310 18.379200 4.265820
H 8.583600 18.396500 4.237220
H 8.247170 17.241700 4.649970
H 8.211670 17.966100 5.338260
H 8.188520 17.938500 5.364840
H 8.264380 17.264500 4.627670
H 7.960880 16.987400 5.573760
H 8.416170 18.889600 5.155930
H 8.449230 18.913600 5.124020
H 11.429700 19.109600 4.335610
H 11.331300 20.838800 4.325800
H 11.409200 21.848900 5.039600
H 7.562600 17.498400 7.465920
H 7.578060 17.545000 7.440920
H 7.921400 17.720300 6.263090
H 7.902240 17.684200 6.288630
H 7.868690 18.421900 6.973690
H 7.843600 18.381000 7.003500
H 8.156030 18.890200 6.157990
H 8.187550 18.922900 6.125640
H 11.243500 17.407500 8.948260
H 6.390310 16.958400 12.746100
H 6.382710 16.988400 12.759200
H 6.039600 17.541100 13.479200
H 6.042800 17.580200 13.490200
H 6.936210 17.168700 13.838700
H 6.946450 17.215100 13.839400
H 6.322940 20.285800 21.415100
H 6.316900 20.306200 21.403100
H 6.321310 20.290800 21.385700
H 6.243600 22.287800 21.663600
H 6.543780 21.300400 21.581700
H 6.578250 21.276600 21.569800
H 6.567800 21.274700 21.599400
H 6.286520 22.267600 21.682000
H 6.307780 22.271900 21.659400
H 7.725080 22.256600 25.693500
H 7.756780 22.289200 25.686700
H 6.790510 22.343100 25.319000
H 6.756770 22.308500 25.330900
H 6.575440 21.596600 27.191100
H 6.695720 21.970600 26.242200
H 6.666100 21.952600 26.261000
H 6.600940 21.598100 27.165400
H 7.389730 21.456300 27.754400
H 7.412360 21.451700 27.731200
H 7.480390 21.812200 26.824300
H 7.507140 21.824200 26.808000
H 8.413340 22.050200 26.450700
H 8.584280 21.690000 27.406100
H 8.385340 22.027800 26.457400
H 8.560650 21.683500 27.417900
H 10.080700 18.524700 29.328000
H 10.057300 18.561100 29.327700
H 10.793700 17.839900 29.424300
H 10.819900 17.805300 29.416100
H 9.714000 19.465900 29.554900
H 9.692060 19.504600 29.547300
H 7.411010 21.023500 28.915500
H 7.428440 20.998900 28.884800
H 6.484780 21.240700 28.121200
H 6.411380 20.853200 29.011800
H 6.506160 21.225700 28.088600
H 6.394120 20.884700 29.051300
H 8.223780 21.305300 28.297100
H 8.204020 21.315900 28.317600
H 11.145500 18.578800 29.959800
H 9.795930 20.417600 30.024200
H 9.818140 20.376700 30.035900
H 10.750000 18.975900 29.917700
H 10.592600 19.409100 30.029200
H 10.619300 19.904100 30.266000
H 10.918100 20.182700 30.572900
H 11.312000 20.318900 30.856000
H 11.442700 19.390700 30.507700
H 11.208600 21.204400 31.211400
H 10.365200 21.013000 30.642300
H 10.341000 21.055400 30.630700
H 11.181300 21.247200 31.204200
H 10.865100 22.536000 2.350360
H 11.033800 22.819500 3.331660
H 11.232900 22.568100 4.315990
H 7.573450 24.133400 14.826500
H 8.603090 24.026000 14.836300
H 6.711220 24.546200 15.223800
H 6.306350 25.793500 16.733900
H 6.247430 25.153900 15.922000
H 7.222830 25.213600 16.134200
H 7.535220 25.783500 16.894200
H 9.524250 24.252800 15.250900
H 7.885840 24.703300 15.586400
H 8.198230 25.273300 16.346400
H 9.173630 25.333000 16.558600
H 8.861240 24.763000 15.798600
H 10.149000 25.392700 16.770800
H 10.090100 24.753000 15.958900
H 8.510620 25.843200 17.106400
H 6.872210 26.293800 17.442000
H 7.793370 26.520600 17.856500
H 8.823010 26.413200 17.866400
H 9.685240 26.000300 17.469000
H 11.341500 27.357700 30.223700
H 11.326400 29.063800 29.180200
H 11.071000 28.236000 29.747100
H 11.488000 3.720070 15.815100
H 11.684300 5.535400 16.631200
H 11.642800 5.512360 16.639000
H 11.768600 4.649580 16.080800
H 11.816400 4.662420 16.090500
H 16.189700 0.732988 24.049900
H 16.160800 0.701789 24.071300
H 16.169900 0.747770 24.065200
H 15.230000 1.028830 25.492600
H 15.224600 1.020110 25.493400
H 15.258400 1.026740 25.480400
H 16.050500 1.541960 24.718500
H 16.085500 1.527620 24.705300
H 16.053200 1.508170 24.711600
H 15.653800 1.942630 25.549800
H 15.618100 1.937870 25.547000
H 15.609600 1.951450 25.560900
H 14.559800 0.720385 26.177600
H 14.595000 0.715676 26.161000
H 14.570200 0.708048 26.172200
H 14.327100 1.320500 26.911000
H 14.288500 1.338430 26.915500
H 14.290100 1.309890 26.920100
H 14.972200 1.875740 26.353700
H 14.965200 1.866500 26.366700
H 15.010100 1.866810 26.357100
H 15.625300 5.920680 26.917600
H 16.472300 5.394070 26.845500
H 15.089600 5.892990 27.761500
H 16.783700 4.839770 27.617400
H 15.936600 5.366380 27.689400
H 14.865300 5.311000 29.377400
H 14.340000 5.942480 28.747200
H 15.401000 5.338690 28.533400
H 16.248000 4.812080 28.461300
H 16.559400 4.257780 29.233200
H 15.677600 4.694360 29.555300
H 16.773900 0.657298 31.145700
H 16.772300 0.623029 31.109600
H 12.240000 6.561590 6.798260
H 12.235400 6.563120 6.778440
H 11.843700 7.430890 7.093690
H 11.838100 7.428070 7.085060
H 13.027200 7.229850 6.797510
H 13.033200 7.226630 6.812420
H 12.417400 8.237230 7.183740
H 12.424500 8.239770 7.185110
H 12.020000 9.102170 7.490370
H 12.028200 9.109070 7.480530
H 13.237300 9.162940 7.265520
H 13.246400 9.164430 7.259110
H 11.447400 8.300200 7.389110
H 13.393900 8.181450 6.975800
H 13.401600 8.179340 6.981100
H 12.609100 9.917950 7.571950
H 12.599300 9.911340 7.589050
H 11.660500 10.238000 7.835800
H 11.650900 10.226100 7.859700
H 12.149500 6.068350 11.315100
H 12.137300 6.032210 11.316900
H 11.753300 7.174420 11.709500
H 11.738600 7.138940 11.706800
H 12.685400 6.890850 11.501700
H 12.699400 6.925090 11.503100
H 12.742300 7.915450 11.801700
H 12.726000 7.882440 11.796500
H 12.248500 8.741290 12.122200
H 12.266700 8.774050 12.130900
H 11.536900 8.098900 12.023300
H 11.520100 8.064160 12.017000
H 13.800900 10.745100 20.932200
H 14.558000 10.984200 21.883800
H 13.850700 10.277900 21.854800
H 14.279500 10.189300 22.792900
H 14.972600 10.502900 23.495100
H 15.744000 11.134700 23.773400
H 15.119000 11.096700 22.704000
H 16.195700 6.038400 25.823600
H 14.599000 6.614510 26.881400
H 15.313900 6.474980 26.145700
H 14.242600 6.419600 27.833600
H 12.943000 11.282100 30.524700
H 13.105400 10.044800 30.601000
H 13.081200 10.057400 30.654900
H 13.061300 10.060400 30.599800
H 12.423600 10.566700 30.022600
H 12.375700 10.579100 30.023000
H 12.404200 10.574800 30.066900
H 13.251100 11.025900 30.778000
H 13.296700 11.009400 30.782700
H 13.673600 11.023400 31.156600
H 13.889700 10.039800 31.276800
H 13.865500 10.057600 31.330700
H 13.848600 10.059100 31.272100
H 13.983800 11.283500 31.407900
H 14.027100 11.263500 31.416600
H 14.546900 10.575400 31.913200
H 14.526700 10.575600 31.859700
H 14.566300 10.553100 31.868900
H 11.870000 16.389500 1.732300
H 11.870400 16.376000 1.763170
H 11.894600 16.369200 1.794220
H 12.194600 15.625600 2.351210
H 11.556100 13.755100 2.779140
H 12.079600 14.637100 2.776840
H 12.086500 14.665200 2.722300
H 12.064900 14.656600 2.766140
H 11.574900 13.765500 2.746130
H 11.562200 13.740400 2.783480
H 12.201200 15.599300 2.414740
H 12.179900 15.615900 2.394260
H 11.825000 16.887900 5.164070
H 11.511600 15.905100 5.250840
H 11.601300 16.772100 6.131810
H 14.786800 12.246300 20.052100
H 14.143500 11.465500 20.272400
H 15.558200 12.878100 20.330400
H 14.704500 11.578000 21.092600
H 15.265400 11.690500 21.912800
H 15.972700 12.396800 21.941800
H 15.411800 12.284300 21.121600
H 16.680100 13.103000 21.970800
H 16.251300 13.191700 21.032700
H 15.826300 11.803000 22.733000
H 16.387300 11.915400 23.553200
H 16.729900 12.635900 22.893400
H 14.438400 15.719100 25.603800
H 14.414200 15.691400 25.608800
H 14.398000 16.684200 25.726900
H 14.410300 16.710700 25.729800
H 15.320100 16.020900 25.231400
H 15.349000 16.060200 25.248600
H 15.974700 16.794200 25.018500
H 16.000600 16.841400 25.056100
H 12.821300 16.574200 26.435400
H 12.819900 16.580000 26.403500
H 13.512700 15.909300 26.026500
H 13.499500 15.893900 26.049400
H 11.968000 12.511400 29.707000
H 12.020600 12.506500 29.718600
H 12.021800 12.500800 29.710100
H 12.948700 12.684400 30.512100
H 12.751200 12.247900 30.350500
H 12.708200 11.733800 30.326200
H 12.757400 11.719800 30.330400
H 12.898000 12.699400 30.504300
H 12.027000 11.465600 29.696500
H 11.975500 11.476200 29.696200
H 12.016000 11.471300 29.724200
H 13.290000 12.955100 30.808300
H 13.487900 11.973900 30.964300
H 13.440900 11.991400 30.956100
H 13.481800 11.989300 30.982400
H 13.679100 12.938500 31.146000
H 13.630700 12.957000 31.134300
H 12.416700 13.403200 30.051600
H 12.409500 13.394800 30.059800
H 12.355100 13.407300 30.052500
H 13.033100 13.923800 30.640200
H 13.086100 13.908100 30.651800
H 13.098200 13.921000 30.634100
H 13.820400 13.922500 31.312400
H 13.882500 13.921200 31.309900
H 13.870400 13.903100 31.327600
H 14.943000 11.472000 32.246300
H 14.913800 11.471500 32.205200
H 14.020600 12.696500 31.440200
H 14.212400 11.730700 31.614300
H 14.218300 12.228100 31.598200
H 14.173600 12.249000 31.586100
H 14.948800 12.482300 32.232200
H 14.947600 12.507300 32.240700
H 14.906200 12.506600 32.216000
H 14.954000 11.447100 32.218500
H 14.552200 13.381200 31.906000
H 14.559400 13.403700 31.897900
H 14.506000 13.403800 31.889200
H 14.589600 20.856600 2.356440
H 14.684000 20.912900 2.315010
H 14.792200 19.900000 2.499670
H 14.704200 19.843600 2.536660
H 14.927800 20.340800 3.386980
H 14.902600 19.066200 3.190850
H 14.973000 19.123300 3.159840
H 14.960100 19.894500 3.748190
H 15.178000 18.790900 4.118630
H 15.131900 18.732600 4.143710
H 14.861000 21.618000 3.888340
H 14.589800 21.833800 2.698490
H 14.677600 21.890600 2.655330
H 14.870500 21.336100 3.464820
H 14.803600 20.789700 3.330990
H 12.018600 17.808700 5.595910
H 11.522800 19.852200 5.050930
H 15.445300 19.611700 5.912590
H 15.449300 19.672400 5.893260
H 15.330600 18.932300 5.139940
H 15.352400 18.991900 5.119130
H 15.120700 19.786200 4.196460
H 15.174100 19.827500 4.722740
H 15.256300 20.227000 5.083780
H 11.515200 20.854900 5.308610
H 15.075000 21.551000 4.862880
H 15.063400 20.781500 4.274300
H 15.006100 21.776900 4.352130
H 15.017500 20.722700 4.305540
H 15.199000 21.222300 5.161610
H 15.231500 20.655800 5.280090
H 12.040400 18.420700 6.430650
H 11.884500 18.559900 7.444620
H 11.708900 17.538500 6.765100
H 11.485200 17.422700 7.732840
H 15.445500 20.588900 6.254630
H 15.442800 20.650200 6.233590
H 15.330900 21.601900 6.074420
H 15.334700 21.663100 6.048930
H 11.592900 18.189100 8.366130
H 14.382100 17.702300 25.855800
H 14.381800 17.677100 25.845100
H 14.365600 18.669900 25.963300
H 15.162100 18.228500 25.550000
H 15.163200 18.263500 25.582000
H 15.178300 17.235700 25.431800
H 15.191400 17.271900 25.456000
H 16.202500 17.804100 25.027100
H 16.218500 17.853300 25.077900
H 15.944300 18.824700 25.308100
H 15.942400 18.780000 25.254900
H 15.251600 19.495400 25.685100
H 15.264100 19.460300 25.640900
H 12.545800 17.551400 26.633700
H 12.561200 17.550000 26.663200
H 12.763700 18.563300 26.655400
H 12.788900 18.559900 26.671800
H 13.601500 17.125600 26.140300
H 13.572900 18.132800 26.255600
H 13.601000 17.141200 26.129600
H 13.585400 18.118500 26.258500
H 14.354000 18.694000 25.981800
H 13.415200 19.344400 26.462900
H 13.443500 19.333200 26.458900
H 14.349500 19.662800 26.081500
H 14.325900 19.685600 26.107800
H 11.704000 17.534200 29.811200
H 12.577000 17.691800 30.364700
H 12.544300 17.726000 30.384800
H 11.733600 17.500400 29.795600
H 13.124100 18.328100 30.971000
H 12.024100 18.522100 30.434100
H 13.089400 18.363800 30.991200
H 11.573300 18.462400 30.159500
H 11.796700 20.126000 31.047100
H 12.135400 19.805500 31.097700
H 12.266000 18.877300 30.749500
H 12.349600 19.295700 30.977700
H 11.471100 19.352400 30.503500
H 13.193300 19.276800 31.468100
H 13.228200 19.238900 31.452000
H 12.828100 20.220300 31.687700
H 12.861500 20.180100 31.678900
H 12.091600 20.941500 31.591100
H 12.122300 20.899500 31.590800
H 14.774500 22.571200 3.429460
H 14.704500 22.513200 3.471140
H 14.903100 22.712900 4.467360
H 14.948800 22.772200 4.429960
H 15.153900 22.439800 5.388750
H 15.132400 22.379300 5.420230
H 12.166000 27.298300 23.123200
H 12.976600 26.661500 23.027400
H 12.687100 27.413800 23.968800
H 13.849300 26.257200 23.410500
H 13.528800 26.893300 24.112400
H 13.208300 27.529300 24.814300
H 14.782000 27.061700 25.956600
H 14.550300 26.193800 24.169700
H 14.050000 27.008800 24.958000
H 14.891700 26.488200 25.101700
H 13.729500 27.644900 25.659900
H 14.250700 27.760400 26.505500
H 13.886800 27.539000 29.524800
H 13.048500 26.341200 30.453500
H 12.065300 26.664100 30.482300
H 13.040900 27.194200 29.931700
H 12.187400 27.702500 29.816800
H 14.740300 27.030700 29.639700
H 14.027600 26.475300 30.145100
H 11.634600 27.997000 23.672100
H 15.938300 32.470700 23.759300
H 15.935700 32.480700 23.776000
H 15.912100 32.433800 23.797700
H 15.373800 31.565300 23.964100
H 15.398900 31.600300 23.911200
H 15.410600 31.601600 23.928600
H 11.866400 28.864900 25.459000
H 12.366700 28.049900 24.670700
H 12.887800 28.165400 25.516300
H 11.525000 28.570400 24.527000
H 14.044100 30.965900 25.332600
H 14.091100 30.960000 25.287700
H 14.072100 30.978100 25.272400
H 14.715800 31.054000 24.465100
H 14.690100 31.028000 24.525900
H 14.735500 31.045000 24.481900
H 14.437600 31.883600 25.386200
H 14.467600 31.894000 25.341800
H 14.470800 31.882600 25.356000
H 14.850400 32.805300 25.424300
H 14.863000 32.809900 25.411100
H 14.831100 32.801400 25.439800
H 15.102500 32.183400 24.701900
H 15.130900 32.205100 24.661200
H 15.130500 32.203400 24.676400
H 15.526300 33.121000 24.730500
H 15.510100 33.126000 24.744700
H 15.496000 33.101100 24.755600
H 12.567400 28.801500 26.218200
H 13.440100 28.397200 26.601300
H 13.609100 31.395600 26.168000
H 13.650200 31.369500 26.130200
H 13.640400 31.393200 26.116900
H 13.501500 32.202000 26.808300
H 14.190600 32.484500 26.103900
H 14.166300 32.501700 26.124000
H 13.750200 33.169000 27.081900
H 13.765100 33.129800 27.072600
H 13.530900 32.163700 26.783500
H 13.536300 32.187800 26.772300
H 14.199600 32.498800 26.091700
H 13.787600 33.149100 27.062900
H 13.025800 28.900300 28.888100
H 12.179900 28.555500 29.295000
H 13.033300 28.047200 29.409900
H 13.879300 28.392000 29.003000
H 14.001400 29.430300 28.337600
H 14.725200 28.736700 28.596100
H 14.995700 27.858400 29.072800
H 12.039100 29.619100 28.674800
H 13.018200 29.753300 28.366400
H 16.724900 31.669500 29.984100
H 16.737200 31.687900 30.043500
H 16.567000 32.388500 30.712100
H 16.575000 32.415800 30.761600
H 19.747700 1.843550 23.508600
H 19.706600 1.806040 23.520200
H 20.483200 2.058740 22.883900
H 20.485600 1.227520 23.784300
H 20.537300 2.072740 22.879500
H 20.851600 1.334680 23.467000
H 21.457100 1.923420 22.560000
H 21.510700 1.910380 22.566600
H 21.367100 1.260930 23.313400
H 21.793800 1.023480 23.342800
H 21.223500 0.611481 24.060100
H 21.220000 0.610621 24.050100
H 22.105000 0.644894 23.589100
H 20.277800 0.921825 24.174300
H 19.335600 1.233030 24.298600
H 19.353500 1.284240 24.285500
H 20.341900 0.578068 24.531100
H 17.630700 4.313160 27.545300
H 17.008000 5.421760 26.001500
H 17.533300 4.790280 26.631700