1900
Atoms. Timestep: 0
H 0.646182 0.508779 5.761920
H 1.104560 1.246240 5.198220
H 0.656941 2.240560 5.787090
H 1.276890 2.248110 5.002520
H 1.116980 3.245930 5.227280
H 0.667700 3.972340 5.812250
H 32.575600 1.363350 6.951360
H 32.271000 2.225460 7.356220
H 32.891000 2.233010 6.571660
H 33.195600 1.370890 6.166790
H 32.260300 0.493680 7.331060
H 32.281800 3.957240 7.381390
H 32.586400 3.095120 6.976520
H 33.206300 3.102670 6.191960
H 32.903400 4.232700 6.600720
H 31.811000 1.220090 7.916040
H 31.651100 2.217910 8.140790
H 31.823400 3.219780 7.945100
H 32.878600 33.087300 6.542600
H 0.666133 0.511775 5.720670
H 1.119410 1.255540 5.161140
H 1.286070 2.259630 4.972060
H 0.667892 2.243370 5.757890
H 0.669651 3.974960 5.795110
H 1.121440 3.255010 5.204110
H 32.593700 1.353180 6.918030
H 32.285500 2.210850 7.329550
H 32.903700 2.227110 6.543720
H 32.283800 0.479251 7.292340
H 33.211900 1.369440 6.132200
H 32.287300 3.942440 7.366770
H 32.595500 3.084770 6.955250
H 33.213700 3.101040 6.169410
H 32.905700 4.226580 6.586700
H 31.667300 2.194580 8.115380
H 31.832000 1.199210 7.883330
H 31.834000 3.198680 7.926310
H 32.901700 33.081600 6.500750
H 0.673335 0.515964 5.710400
H 1.122450 1.264630 5.154050
H 1.287060 2.270370 4.972060
H 0.673854 2.247200 5.761600
H 0.674373 3.978440 5.812800
H 1.123050 3.263690 5.213180
H 32.607800 1.346830 6.920310
H 32.301400 2.200870 7.340680
H 32.914600 2.224030 6.551140
H 33.221000 1.370000 6.130770
H 32.300900 0.469628 7.289480
H 32.608300 3.078070 6.971510
H 33.221500 3.101240 6.181970
H 32.301900 3.932110 7.391890
H 32.915200 4.223100 6.610270
H 31.688200 2.177700 8.130220
H 31.852200 1.184380 7.889100
H 31.852800 3.183440 7.948230
H 32.914000 33.079000 6.492020
H 1.899680 3.991500 17.313100
H 0.873164 4.098460 17.394100
H 2.845630 4.081250 17.724000
H 1.236110 4.412050 18.271600
H 2.222340 4.403440 18.436500
H 3.457570 4.343670 18.516700
H 0.612812 4.734240 18.984000
H 1.599050 4.725630 19.149000
H 0.975752 5.047820 19.861500
H 1.961990 5.039220 20.026400
H 2.585280 4.717030 19.313900
H 3.156940 5.077800 20.352600
H 3.571510 4.708430 19.478900
H 1.298420 5.459770 20.984800
H 2.324930 5.352810 20.903800
H 32.895100 4.373470 17.945400
H 32.480600 4.742840 18.819100
H 32.594500 5.107600 19.781200
H 33.206400 5.370010 20.573900
H 1.915980 4.001870 17.358200
H 0.887779 4.091650 17.438700
H 2.860250 4.110310 17.768500
H 1.245270 4.416620 18.314200
H 2.231500 4.425950 18.479100
H 3.467580 4.387900 18.559600
H 0.616525 4.732270 19.024800
H 1.602760 4.741600 19.189700
H 0.974014 5.057250 19.900300
H 1.960250 5.066580 20.065200
H 2.588990 4.750930 19.354600
H 3.154360 5.127620 20.391100
H 3.575230 4.760260 19.519500
H 1.289540 5.481330 21.021200
H 2.317740 5.391550 20.940700
H 32.905100 4.355580 17.988400
H 32.591900 5.095300 19.819900
H 32.484300 4.722940 18.859900
H 33.199300 5.372890 20.611000
H 1.888790 4.009390 17.329600
H 0.860526 4.102450 17.405300
H 2.831420 4.113620 17.744700
H 1.214860 4.424090 18.283300
H 2.200310 4.429670 18.453000
H 3.435840 4.387230 18.539400
H 0.583741 4.740140 18.991700
H 1.569190 4.745720 19.161400
H 0.938072 5.061770 19.869700
H 1.923520 5.067360 20.039400
H 2.554640 4.751310 19.331100
H 3.116230 5.123560 20.371200
H 3.540090 4.756890 19.500700
H 2.277850 5.388990 20.917400
H 1.249580 5.482050 20.993100
H 32.876100 4.367880 17.951500
H 32.556500 5.104210 19.783300
H 32.452300 4.734550 18.822000
H 33.160900 5.377820 20.578000
H 2.159270 0.597057 20.482200
H 3.161520 0.557220 20.226000
H 1.241620 31.694000 17.165900
H 0.496596 31.963900 17.832100
H 1.721600 32.123300 17.930900
H 1.204990 32.472100 18.712800
H 2.201570 32.552600 18.695900
H 2.243870 31.654200 16.909600
H 2.718170 32.203800 17.914000
H 3.234780 31.855100 17.132000
H 3.948840 32.242900 17.773500
H 3.198150 32.633100 18.679000
H 4.194720 32.713700 18.662100
H 1.684970 32.901400 19.477800
H 1.168360 33.250100 20.259800
H 2.681540 32.981900 19.460900
H 3.906540 33.141300 19.559800
H 33.308300 32.862300 19.618300
H 33.062400 32.391600 18.729700
H 2.184380 0.605834 20.436000
H 3.186320 0.553891 20.180800
H 2.249780 31.675100 16.857000
H 1.247840 31.727000 17.112300
H 1.361340 32.285800 18.212600
H 2.233430 32.121300 17.751800
H 0.505607 32.004200 17.778600
H 2.217080 32.567400 18.646500
H 3.089170 32.402900 18.185700
H 3.242960 31.862200 17.081300
H 3.961250 32.238400 17.725000
H 4.212200 32.702700 18.615600
H 0.472908 32.896500 19.568100
H 1.344990 32.732000 19.107300
H 2.200730 33.013600 19.541300
H 1.191200 33.272700 20.211800
H 3.072820 32.849100 19.080500
H 3.928560 33.130700 19.514500
H 33.075900 32.432200 18.677500
H 1.270300 8.555090 6.779800
H 2.095360 9.140100 7.000640
H 2.719570 9.583190 7.697610
H 0.658906 8.124080 9.317510
H 1.308050 8.582770 7.778670
H 1.345790 8.610450 8.777540
H 2.032680 9.096820 8.237580
H 2.070430 9.124500 9.236450
H 0.621160 8.096400 8.318640
H 2.975680 9.765630 8.683940
H 0.596228 8.080800 10.554400
H 1.421290 8.665810 10.775300
H 1.383540 8.638130 9.776410
H 2.226110 9.235980 10.460800
H 2.795060 9.638550 9.695350
H 33.319500 7.984920 7.094240
H 32.569900 7.455270 8.871140
H 32.750500 7.582350 7.859730
H 32.826000 7.637710 9.857470
H 1.314920 8.561940 6.806520
H 2.130660 9.157670 7.033220
H 0.511695 7.986350 7.115170
H 2.740340 9.613940 7.734540
H 1.746140 8.897410 7.918860
H 1.361630 8.637150 8.804490
H 0.936662 8.311750 7.959830
H 0.552148 8.051490 8.845470
H 2.171110 9.222810 8.763520
H 2.980590 9.808470 8.722550
H 0.977115 8.376890 9.690130
H 1.786600 8.962550 9.649160
H 1.408340 8.712370 10.802500
H 0.592601 8.116630 10.575800
H 2.211560 9.287950 10.493800
H 2.787050 9.689150 9.732510
H 32.790200 7.585150 7.876470
H 32.596600 7.465830 8.886440
H 32.836900 7.660360 9.874450
H 1.360340 8.603100 6.811640
H 2.188010 9.180990 7.041270
H 0.547660 8.039420 7.117500
H 2.808920 9.618230 7.744850
H 0.596142 8.085330 8.848210
H 0.981990 8.347770 7.963800
H 1.802170 8.918550 7.925680
H 1.416320 8.656110 8.810090
H 2.236500 9.226890 8.771980
H 3.056670 9.797680 8.733860
H 0.644625 8.131230 10.578900
H 1.030470 8.393670 9.694500
H 1.850650 8.964460 9.656390
H 1.472300 8.709120 10.808500
H 2.284980 9.272800 10.502700
H 2.864900 9.671240 9.743300
H 32.629900 7.514550 8.886320
H 32.821700 7.640980 7.876890
H 32.877700 7.693990 9.875340
H 1.808480 8.196220 16.071600
H 4.002070 8.318690 16.487300
H 2.631590 7.941130 15.497900
H 3.658180 7.871220 15.384000
H 3.011280 8.286660 16.356000
H 5.240670 8.307180 16.526600
H 4.613170 8.005200 15.760500
H 1.541270 8.957180 17.901700
H 1.409400 8.568120 16.951400
H 2.168770 9.259160 18.667700
H 2.400180 8.600150 17.082800
H 3.390970 8.632180 17.214100
H 2.779870 8.945670 17.940900
H 3.770660 8.977700 18.072200
H 4.381760 8.664210 17.345500
H 5.372540 8.696250 17.476800
H 4.973460 9.068140 18.356700
H 3.123760 9.393150 19.044200
H 4.150350 9.323230 18.930400
H 1.790870 8.183230 16.097400
H 2.989840 8.287850 16.392900
H 2.622120 7.933480 15.533200
H 3.650430 7.873630 15.429700
H 3.978920 8.330970 16.533600
H 4.600270 8.019730 15.814600
H 5.217130 8.332620 16.584900
H 1.379410 8.555970 16.971200
H 1.497990 8.951820 17.920400
H 2.114850 9.264710 18.690700
H 2.368480 8.599100 17.111900
H 3.357560 8.642220 17.252600
H 2.736210 8.953460 17.971600
H 3.725280 8.996590 18.112400
H 4.346640 8.685340 17.393400
H 5.335720 8.728470 17.534100
H 4.924260 9.101210 18.407900
H 3.064690 9.410800 19.075600
H 4.093000 9.350960 18.972100
H 1.295930 12.408600 0.715514
H 2.210620 12.798800 0.820416
H 0.799028 12.076600 1.517250
H 1.919850 12.536200 1.778640
H 1.216820 12.134800 2.423900
H 0.472584 12.334600 31.491900
H 0.878137 12.350400 32.662900
H 1.375040 12.682500 31.861100
H 2.011200 12.852400 32.660000
H 31.605300 11.184400 1.415250
H 32.241400 11.354400 2.214090
H 31.405800 11.238000 33.254800
H 32.738300 11.686400 1.412350
H 32.320500 11.628200 0.505708
H 33.235200 12.018400 0.610611
H 33.143900 11.702200 2.583280
H 31.696600 11.500600 32.296600
H 32.817400 11.960200 32.558000
H 32.399600 11.902000 31.651300
H 3.076470 12.524600 6.723150
H 3.740310 12.102200 7.395940
H 3.179680 13.206200 7.447490
H 2.077780 14.254100 6.618350
H 2.467950 13.312200 6.438530
H 2.680330 14.071000 7.395090
H 2.010520 15.097900 7.214430
H 3.782230 13.023000 8.224230
H 4.281570 12.158300 8.276630
H 4.555240 12.677800 9.129240
H 2.783530 14.752600 8.119440
H 3.282880 13.887800 8.171830
H 3.885430 13.704700 8.948570
H 3.386080 14.569500 8.896180
H 2.284180 15.617400 8.067040
H 2.825450 15.673500 8.947730
H 4.097810 14.463400 9.905130
H 4.487980 13.521500 9.725310
H 3.489280 15.251100 9.620520
H 5.723340 17.735200 10.323600
H 5.000780 17.260700 10.893100
H 4.526430 17.118200 11.802200
H 4.427360 17.346100 12.807200
H 5.463920 17.880400 11.526600
H 5.177210 17.923200 12.483700
H 5.640350 18.542900 13.117200
H 5.927060 18.500200 12.160100
H 4.730140 17.883200 13.638800
H 5.353640 18.585700 14.074200
H 6.213770 18.457500 11.203100
H 6.500480 18.414800 10.246100
H 7.123970 19.117200 10.681500
H 7.327690 19.882200 12.518000
H 6.676900 19.077300 11.836600
H 6.390190 19.120000 12.793600
H 7.426750 19.654300 11.513100
H 6.130770 19.265200 13.996700
H 6.853330 19.739800 13.427100
H 5.333110 23.716800 3.859480
H 5.061000 24.613900 3.420240
H 5.282780 25.594100 3.171610
H 5.939030 26.394700 3.180210
H 5.982620 24.768900 3.775930
H 6.421630 25.659300 3.655910
H 7.343250 25.814400 4.011600
H 6.853910 26.801200 3.443740
H 7.782270 26.704800 3.891580
H 6.026200 23.143200 4.371650
H 6.954560 23.046700 4.819490
H 6.465220 24.033600 4.251630
H 7.386840 24.188600 4.607320
H 7.869440 23.453300 5.083020
H 6.904240 24.924000 4.131610
H 8.525690 24.253900 5.091620
H 7.825860 25.079000 4.487300
H 8.747480 25.234100 4.842990
H 8.475370 26.131100 4.403750
H 3.984010 27.509800 22.934900
H 5.183680 27.531300 23.245000
H 4.783670 27.049700 22.465200
H 5.797700 26.847700 22.413400
H 3.612980 28.104600 23.696600
H 5.583680 28.012900 24.024800
H 4.598330 28.058700 23.860700
H 3.770000 28.674900 24.546300
H 4.998340 28.540300 24.640500
H 5.369670 29.178000 25.636100
H 4.412990 29.067800 25.256200
H 7.397370 27.350800 23.503200
H 6.754370 26.957900 22.793300
H 6.169030 27.485400 23.409000
H 6.569030 27.967000 24.188800
H 7.183350 28.515900 25.114600
H 6.383690 28.976000 25.584300
H 7.554380 27.921100 24.352900
H 5.983690 28.494400 24.804500
H 4.541670 23.797100 31.909200
H 5.411120 23.260600 31.741900
H 4.065050 24.697700 32.092200
H 4.108990 25.721100 32.241800
H 5.274710 24.476600 31.938400
H 5.058370 25.438600 32.104800
H 5.575080 27.080100 32.300300
H 5.791420 26.118100 32.134000
H 4.661690 26.593100 32.318000
H 7.353820 23.719000 31.617300
H 6.440440 23.232100 31.635100
H 6.224100 24.194100 31.801400
H 6.007760 25.156100 31.967700
H 6.740800 25.835600 31.996900
H 6.957140 24.873600 31.830600
H 7.950460 25.614500 31.843100
H 7.906530 24.591100 31.693500
H 6.604400 27.051600 32.193500
H 7.473850 26.515100 32.026100
H 4.560800 23.739900 31.907000
H 5.435130 23.211600 31.739100
H 4.075380 24.636700 32.085600
H 4.108950 25.661700 32.227000
H 5.286530 24.427500 31.926900
H 5.060610 25.388400 32.086900
H 5.560420 27.036900 32.266800
H 5.786340 26.076100 32.106800
H 4.652510 26.540200 32.293300
H 6.464110 23.193400 31.626800
H 7.372020 23.690100 31.600300
H 6.238190 24.154300 31.786800
H 6.012260 25.115200 31.946800
H 6.738000 25.802800 31.966700
H 6.963920 24.841900 31.806700
H 7.949150 25.593700 31.808100
H 7.915580 24.568700 31.666700
H 6.589390 27.018700 32.154600
H 7.463730 26.490500 31.986600
H 1.351290 31.204100 13.175000
H 0.858536 31.402400 12.286400
H 0.609312 30.310800 13.607900
H 1.063510 29.943600 14.700900
H 1.426310 30.670100 14.058800
H 32.078500 30.683700 11.384600
H 31.012300 29.232800 12.255100
H 31.087300 28.698900 13.138900
H 31.829300 29.592100 12.706100
H 31.375100 29.959300 11.613000
H 32.934100 31.211900 11.631100
H 32.362400 30.317600 12.270800
H 32.646300 29.951500 13.157000
H 33.179400 30.676900 12.721700
H 31.580100 28.500600 14.027500
H 32.358500 28.691000 14.682800
H 32.113200 29.226000 13.592200
H 32.930200 29.585400 14.043100
H 33.214100 29.219200 14.929300
H 8.809430 2.210750 21.485400
H 9.462560 1.593840 22.339000
H 10.531900 1.249540 21.815700
H 9.746800 1.780040 21.398600
H 7.970900 2.426280 22.053000
H 7.402420 2.053880 23.934000
H 9.178320 1.407640 23.279500
H 8.290370 1.730760 23.606700
H 8.574610 1.916960 22.666300
H 10.066300 1.084520 22.952300
H 10.954200 0.761406 22.625100
H 9.782030 0.898327 23.892800
H 7.455900 2.368860 22.949200
H 8.894080 1.221440 24.220000
H 7.824790 1.565740 24.743300
H 8.609840 1.035250 25.160400
H 9.547210 0.604532 25.073600
H 10.900700 33.300400 23.609800
H 10.385700 33.243000 24.506000
H 8.794830 2.215980 21.490600
H 9.446780 1.593370 22.341000
H 9.727980 1.777140 21.399100
H 10.510400 1.239810 21.812400
H 7.961020 2.438760 22.062400
H 7.398620 2.071230 23.946100
H 9.165580 1.409610 23.282900
H 8.282100 1.740420 23.614500
H 8.563300 1.924180 22.672600
H 10.049100 1.078800 22.951300
H 10.932500 0.747986 22.619600
H 9.767870 0.895036 23.893100
H 7.449970 2.385780 22.961100
H 8.884390 1.225850 24.224700
H 7.820730 1.579410 24.753300
H 8.603190 1.042090 25.166600
H 9.536340 0.603240 25.075100
H 10.881200 33.287400 23.604600
H 10.370100 33.234400 24.503400
H 6.669250 1.790880 29.160000
H 7.147460 2.357740 28.437700
H 7.106170 2.947520 29.244200
H 7.603540 3.240670 28.147600
H 7.490080 3.870190 29.209000
H 7.915280 4.203080 28.367400
H 7.999160 4.987090 29.038300
H 6.297050 1.691960 30.121000
H 6.130580 2.087500 31.063100
H 6.680960 2.614630 30.085800
H 6.639660 3.204400 30.892300
H 7.064870 3.537290 30.050700
H 7.023570 4.127070 30.857100
H 7.448780 4.459960 30.015500
H 7.460480 5.283710 30.941300
H 7.832690 5.382630 29.980400
H 6.214450 2.871510 31.733900
H 6.526190 3.833910 31.953700
H 6.982270 4.716840 31.663600
H 6.723050 1.803220 29.156300
H 7.191590 2.382530 28.437600
H 7.123360 2.972950 29.241700
H 7.623570 3.278240 28.149800
H 7.479170 3.906860 29.208000
H 7.903230 4.250350 28.370000
H 7.955640 5.038390 29.039300
H 6.343490 1.695550 30.113400
H 6.154610 2.088350 31.052400
H 6.699300 2.629460 30.079700
H 6.631070 3.219880 30.883800
H 7.055120 3.563370 30.045900
H 6.986890 4.153790 30.850100
H 7.387190 5.323520 30.935500
H 7.410940 4.497280 30.012100
H 7.766760 5.431190 29.978400
H 6.486680 3.848500 31.942000
H 6.207020 2.876390 31.721800
H 6.918650 4.744210 31.654200
H 6.703650 1.783230 29.122700
H 7.182850 2.368570 28.416000
H 7.118860 2.945940 29.229900
H 7.627750 3.263330 28.145400
H 7.487010 3.875540 29.213700
H 7.919150 4.227760 28.383600
H 7.978960 5.003420 29.066600
H 6.318570 1.664130 30.076300
H 6.130780 2.043210 31.021100
H 6.686720 2.593720 30.060100
H 6.622730 3.171090 30.874000
H 7.054870 3.523310 30.043900
H 6.990880 4.100690 30.857800
H 7.406080 5.263400 30.965000
H 7.423020 4.452910 30.027600
H 7.791170 5.382500 30.011400
H 6.481990 3.783300 31.942300
H 6.190590 2.818870 31.704100
H 6.926890 4.678060 31.671700
H 11.297200 1.475170 29.334600
H 10.916100 1.129970 30.233100
H 11.143900 2.128090 30.931500
H 10.711800 1.279580 31.236900
H 10.739100 1.883900 32.077000
H 11.398900 3.730530 32.469900
H 10.990600 2.781010 32.528300
H 11.283200 2.878810 31.577200
H 11.753000 2.222680 28.782100
H 12.161300 3.172200 28.723700
H 12.412800 4.069310 29.175000
H 11.436600 2.225890 29.980300
H 11.575900 2.976600 30.626000
H 12.008000 3.825120 30.320500
H 11.868600 3.074400 29.674800
H 11.715300 3.727320 31.271700
H 12.440000 4.673630 30.015100
H 12.235700 4.823230 31.018900
H 11.854600 4.478040 31.917400
H 11.275700 1.451260 29.357400
H 10.891400 1.104750 30.254000
H 11.122100 2.099570 30.956100
H 10.685700 1.251940 31.257900
H 11.417100 2.199230 30.005800
H 10.713900 1.853370 32.100000
H 11.263400 2.847550 31.604500
H 11.380900 3.695820 32.500300
H 10.968400 2.747890 32.554800
H 11.735800 2.198600 28.808200
H 12.148400 3.146530 28.753800
H 12.402800 4.041050 29.208500
H 11.853400 3.046870 29.704000
H 11.994700 3.794850 30.352500
H 11.699700 3.695190 31.302700
H 11.558400 2.947210 30.654300
H 12.431000 4.642480 30.050700
H 12.225300 4.789670 31.054600
H 11.841000 4.443160 31.951200
H 10.968900 7.622840 16.407300
H 8.638560 9.356220 16.576400
H 9.265250 9.545550 15.774400
H 10.972800 8.755230 15.096700
H 10.119700 9.325570 15.232800
H 9.690160 8.781780 16.260300
H 10.115100 8.018000 16.746100
H 10.544000 8.386620 15.921400
H 9.257310 7.280770 18.395500
H 10.110500 6.710430 18.259400
H 10.964900 6.490450 17.717800
H 10.540000 7.254230 17.232000
H 9.686190 7.649390 17.570800
H 9.261280 8.413160 17.085000
H 8.407490 8.808320 17.423800
H 8.633970 8.048650 18.089700
H 11.822700 7.227680 16.068400
H 11.596200 7.987350 15.402600
H 11.591600 6.679780 16.915800
H 6.920220 10.919300 27.658800
H 8.817390 10.851900 27.029500
H 7.784670 10.891700 27.089800
H 9.741660 10.810500 27.494000
H 6.455670 10.927200 28.583900
H 7.666440 10.882700 28.323400
H 7.464070 10.879700 29.302700
H 6.515480 10.913400 29.617300
H 8.412650 10.846100 28.988100
H 8.615020 10.849000 28.008800
H 9.361240 10.812400 28.673500
H 9.158870 10.809500 29.652700
H 10.369600 10.764900 29.392300
H 10.309800 10.778700 28.358800
H 7.083650 10.881600 30.482100
H 8.007920 10.840200 30.946600
H 8.210290 10.843100 29.967400
H 9.040640 10.800400 30.886300
H 9.905090 10.772800 30.317400
H 6.951400 10.865100 27.643400
H 7.823260 10.858100 27.085200
H 8.857220 10.838200 27.037700
H 9.776230 10.810700 27.513500
H 6.475240 10.857400 28.562600
H 7.451720 10.833700 28.776700
H 6.522370 10.836900 29.596500
H 8.428200 10.810000 28.990900
H 9.102210 10.810400 28.252200
H 8.125730 10.834100 28.038100
H 9.404680 10.786300 29.205000
H 10.381200 10.762700 29.419200
H 10.334000 10.783100 28.385200
H 7.080170 10.809300 30.468200
H 7.754190 10.809700 29.729600
H 9.033130 10.761900 30.896500
H 7.999170 10.781800 30.944100
H 8.730670 10.786000 29.943700
H 9.905000 10.754900 30.338400
H 7.962500 16.679500 17.992900
H 8.197900 15.808100 18.499900
H 8.339050 15.299200 19.390300
H 8.092580 16.229900 19.660500
H 8.348110 15.289000 20.425500
H 7.996310 16.641500 21.856100
H 8.222650 15.780300 21.328000
H 8.034380 16.470500 20.629300
H 7.695900 17.679700 18.005100
H 7.469550 18.540900 18.533200
H 7.599630 18.091300 20.200700
H 7.657830 17.850700 19.231900
H 7.846100 17.160600 19.930600
H 7.904300 16.920000 18.961700
H 7.344100 19.032200 19.435700
H 7.353160 19.022000 20.470900
H 7.729710 17.641700 21.868300
H 7.494300 18.513100 21.361300
H 7.787910 17.401200 20.899400
H 7.995310 16.609300 18.008500
H 8.198220 15.746100 18.542800
H 7.924670 16.877100 18.969400
H 8.081480 16.201300 19.689600
H 8.308910 15.257700 19.448900
H 8.297720 15.275000 20.483900
H 7.953540 16.673700 21.871300
H 8.010840 16.469000 20.650400
H 8.167650 15.793200 21.370600
H 7.754540 17.616000 17.989100
H 7.540430 18.496400 18.489900
H 7.626600 18.088400 20.170900
H 7.697230 17.820600 19.210100
H 7.854040 17.144800 19.930200
H 7.410350 19.014700 19.376600
H 7.399160 19.031900 20.411600
H 7.712770 17.680300 21.852000
H 7.509850 18.543500 21.317700
H 7.783400 17.412600 20.891100
H 7.973110 16.644700 17.982700
H 8.184960 15.775400 18.503300
H 8.003380 16.461300 19.207900
H 8.299510 15.273600 19.401600
H 8.053930 16.210600 20.174600
H 8.286050 15.273900 20.436700
H 8.148200 15.776200 21.331400
H 7.922890 16.645800 21.845900
H 7.720710 17.648700 17.979100
H 7.495400 18.518400 18.493600
H 7.589670 18.083900 19.650400
H 7.771250 17.398000 18.945800
H 7.821800 17.147300 19.912500
H 7.357550 19.020600 19.388300
H 7.344090 19.020900 20.423400
H 7.640220 17.833200 20.617100
H 7.670490 17.649800 21.842400
H 7.458640 18.519100 21.321700
H 7.872340 16.896500 20.879200
H 7.956070 16.611600 18.001700
H 8.167820 15.752400 18.539000
H 8.286050 15.268900 19.446700
H 8.048950 16.222600 20.201600
H 7.993320 16.453500 19.230300
H 8.279090 15.290700 20.481700
H 8.148790 15.811900 21.366600
H 7.930070 16.692900 21.864300
H 7.707550 17.616300 17.978900
H 7.488830 18.497300 18.476600
H 7.588670 18.086500 19.641600
H 7.763180 17.385400 18.950300
H 7.818810 17.154600 19.921600
H 7.358530 19.018500 19.361600
H 7.351570 19.040300 20.396600
H 7.644300 17.855700 20.613000
H 7.681550 17.697600 21.841500
H 7.469800 18.556800 21.304300
H 7.874440 16.923700 20.893000
H 9.382850 17.639800 2.038410
H 10.393000 17.862800 1.997730
H 11.194100 18.449400 2.290630
H 8.434410 17.840200 2.401770
H 7.801780 18.410300 2.990450
H 9.497950 18.429800 2.640540
H 7.654470 19.197200 3.646710
H 8.707410 18.815100 3.116560
H 8.822510 19.605100 3.718690
H 10.403600 18.834600 2.766650
H 9.613040 19.219900 3.242670
H 9.728140 20.009900 3.844800
H 10.518700 19.624700 3.368780
H 10.791700 20.599500 4.083570
H 8.031970 19.990300 4.194710
H 8.833110 20.576900 4.487610
H 9.843230 20.799900 4.446930
H 11.571600 19.242500 2.838630
H 11.424300 20.029500 3.494890
H 9.388670 17.642300 2.024240
H 10.399000 17.864900 1.985790
H 11.199400 18.452200 2.279180
H 8.439220 17.844000 2.384220
H 7.805030 18.416000 2.969290
H 9.502210 18.434100 2.624240
H 7.656020 19.205100 3.622660
H 8.710390 18.821000 3.096760
H 8.823930 19.612900 3.696750
H 10.407600 18.839100 2.751710
H 9.615750 19.226000 3.224230
H 9.729290 20.017900 3.824230
H 10.521100 19.631000 3.351700
H 10.792300 20.608000 4.064240
H 8.032110 19.999800 4.169280
H 8.832550 20.587100 4.462670
H 9.842840 20.809700 4.424220
H 11.426500 20.035900 3.479170
H 11.575500 19.246900 2.825800
H 7.452610 22.013300 1.164020
H 7.217210 21.180100 0.596603
H 8.318430 21.726200 0.754375
H 9.156120 22.237600 0.945893
H 10.021900 21.950400 0.536244
H 7.508880 20.416200 32.815700
H 8.249470 19.926300 32.283400
H 9.240530 19.841800 31.996400
H 10.216500 20.185300 32.031500
H 8.346570 20.927600 33.007200
H 9.212390 20.640400 32.597500
H 9.184260 21.439000 33.198700
H 11.151300 21.697900 32.946800
H 10.050100 21.151800 32.789100
H 10.915900 20.864600 32.379400
H 9.127980 23.036200 1.547060
H 8.152000 22.692700 1.511920
H 10.119000 22.951600 1.260040
H 10.859600 22.461800 0.727762
H 11.392900 28.710700 26.764400
H 11.661100 27.693000 25.063800
H 12.447500 28.604200 23.466600
H 12.788200 29.560400 23.263200
H 12.035000 27.920700 24.125600
H 12.965700 30.533100 23.570000
H 11.920200 28.657500 25.115500
H 12.313400 29.113100 24.316900
H 12.179300 29.621900 25.167200
H 11.786100 29.166300 25.965800
H 12.572500 30.077500 24.368600
H 12.438300 30.586400 25.218900
H 12.932400 31.261600 24.304700
H 12.045200 30.130800 26.017500
H 12.697400 31.550800 25.270600
H 11.426100 27.982200 26.029600
H 11.570400 29.683400 27.071200
H 11.911000 30.639600 26.867800
H 12.323600 31.323100 26.208700
H 11.396300 28.709600 26.761300
H 11.670200 27.704100 25.054300
H 12.458200 28.627900 23.465100
H 12.797400 29.586100 23.269000
H 12.045600 27.939000 24.118500
H 12.972300 30.557000 23.582900
H 11.927200 28.668700 25.113200
H 12.321300 29.130600 24.318600
H 12.184300 29.633300 25.172100
H 11.790300 29.171400 25.966700
H 12.578300 30.095100 24.377500
H 12.441300 30.597900 25.231000
H 12.936100 31.280400 24.322600
H 12.698400 31.562400 25.289900
H 11.432500 27.986200 26.021600
H 12.047300 30.136000 26.025600
H 11.910300 30.638700 26.879100
H 12.322900 31.327600 26.225600
H 11.571100 29.680500 27.075100
H 14.557200 0.630492 0.960047
H 14.887600 1.607140 1.053650
H 15.340400 2.443480 0.644780
H 16.132300 1.536600 30.250700
H 15.573300 0.821748 31.094700
H 15.798200 1.737690 31.427000
H 15.801900 0.559951 30.157100
H 16.251600 2.391840 30.821700
H 15.116100 1.345340 32.970000
H 15.344700 1.083540 32.032400
H 15.569600 1.999490 32.364700
H 16.127900 2.896540 31.717100
H 15.794400 2.915440 32.697000
H 14.895000 32.105600 31.367800
H 15.349100 32.577600 30.566000
H 14.437900 32.629200 33.243000
H 14.891300 33.283400 32.637700
H 14.561500 32.124500 32.347600
H 15.119900 33.021600 31.700100
H 14.578600 0.612855 0.996214
H 14.907400 1.589950 1.090690
H 15.357500 2.427900 0.682101
H 15.813400 0.551338 30.189700
H 16.142100 1.528440 30.284200
H 15.751300 1.299540 31.175700
H 16.261400 2.382870 30.856500
H 14.969500 0.841750 32.958700
H 15.358900 1.749270 32.801600
H 15.360400 1.070650 32.067200
H 15.749800 1.978170 31.910200
H 16.139300 2.885690 31.753100
H 15.808400 2.902180 32.733900
H 14.912300 32.093100 31.400500
H 15.361800 33.246000 31.332800
H 15.363200 32.567400 30.598300
H 14.459300 32.612400 33.278000
H 14.581500 32.109600 32.381300
H 14.970900 33.017100 32.224300
H 12.311400 7.406370 0.844134
H 11.846400 7.943370 1.597160
H 12.677200 8.458580 1.387120
H 12.882700 9.300800 1.885500
H 11.826500 8.756470 2.237630
H 13.508100 8.973790 1.177080
H 14.339000 9.489000 0.967040
H 13.302700 8.131570 0.678700
H 14.133500 8.646780 0.468660
H 13.713600 9.816010 1.675460
H 14.704800 10.541200 1.510030
H 13.919100 10.658200 2.173840
H 15.169900 10.004200 0.757000
H 12.257300 9.627810 2.593920
H 13.023200 10.323900 2.570570
H 13.097200 7.289350 33.034300
H 13.993000 7.623680 32.637600
H 14.759000 8.319780 32.614200
H 15.189700 9.191110 32.970500
H 12.340000 7.361630 0.861455
H 11.863300 7.897200 1.608250
H 12.686300 8.424400 1.396630
H 12.875900 9.274150 1.888460
H 11.827700 8.715290 2.241630
H 13.509200 8.951600 1.185010
H 14.332100 9.478800 0.973398
H 13.319600 8.101840 0.693188
H 14.142500 8.629040 0.481572
H 13.698800 9.801350 1.676840
H 14.678400 10.541600 1.508570
H 13.888500 10.651100 2.168670
H 15.155100 10.006000 0.761782
H 12.242600 9.596700 2.591900
H 12.996900 10.305300 2.565190
H 13.129900 7.252090 33.055300
H 14.021500 7.597930 32.658800
H 14.775800 8.306490 32.632100
H 15.190700 9.187900 32.982400
H 12.319800 7.374770 0.857218
H 11.849200 7.900510 1.614730
H 12.671000 8.429830 1.404300
H 12.865100 9.272630 1.906280
H 11.819000 8.709910 2.259470
H 14.120700 8.645700 0.481467
H 13.492900 8.959160 1.193870
H 14.314800 9.488490 0.983444
H 13.298900 8.116370 0.691894
H 13.687000 9.801950 1.695850
H 14.666000 10.543500 1.530520
H 13.881000 10.644700 2.197830
H 15.136600 10.017800 0.773017
H 12.237300 9.586090 2.618680
H 12.992000 10.294300 2.596120
H 13.104800 7.273580 33.043900
H 13.993800 7.624030 32.645600
H 14.748500 8.332230 32.623000
H 15.166900 9.208420 32.982300
H 16.613000 6.744790 4.223740
H 16.296700 7.123510 5.133820
H 16.354100 7.846090 5.872950
H 16.770000 8.718910 6.243070
H 17.218300 6.811400 3.386560
H 17.950400 7.305500 2.846600
H 17.821000 7.856150 3.671200
H 18.360300 8.687160 3.807230
H 18.613200 8.094690 2.748540
H 19.029100 8.967510 3.118660
H 19.086500 9.690090 3.857790
H 17.152300 7.575790 4.359770
H 17.022900 8.126440 5.184380
H 17.691600 8.406800 4.495810
H 17.562200 8.957450 5.320410
H 18.230900 9.237810 4.631840
H 18.164900 10.002200 5.605050
H 18.770200 10.068800 4.767870
H 17.432800 9.508100 6.145010
H 16.315600 7.146820 5.156130
H 16.636800 6.759770 4.251320
H 16.364400 7.879560 5.885820
H 16.770300 8.761640 6.244850
H 17.242200 6.822110 3.413810
H 17.969400 7.317130 2.868030
H 17.833100 7.877030 3.685280
H 18.363200 8.715610 3.810880
H 18.623500 8.112210 2.760200
H 19.029400 8.994290 3.119240
H 19.078300 9.727030 3.848920
H 17.166900 7.598350 4.376920
H 17.030700 8.158240 5.194170
H 17.696900 8.436930 4.502530
H 17.560700 8.996820 5.319780
H 18.227000 9.275510 4.628130
H 18.151700 10.051700 5.591240
H 18.757000 10.114100 4.753740
H 17.424500 9.556720 6.137030
H 16.317800 7.124720 5.148870
H 16.643500 6.742660 4.243500
H 16.363600 7.853050 5.883140
H 16.768600 8.732500 6.249580
H 17.253400 6.809250 3.409630
H 17.984100 7.306640 2.870690
H 17.844100 7.861840 3.690520
H 18.374500 8.699020 3.823940
H 18.639700 8.101560 2.771100
H 19.044700 8.981010 3.137540
H 19.090500 9.709340 3.871820
H 17.173800 7.579850 4.376920
H 17.704200 8.417030 4.510340
H 17.564200 8.972230 5.330170
H 18.234500 9.254220 4.643770
H 17.033900 8.135040 5.196740
H 18.155000 10.024800 5.611060
H 18.764800 10.091400 4.777190
H 17.424300 9.527420 6.149990
H 16.760500 8.832500 23.626800
H 17.675900 9.691750 22.070100
H 18.574300 10.187200 21.931400
H 19.466300 10.549600 22.311800
H 17.781500 9.443110 23.279600
H 17.012100 9.195880 22.690700
H 18.550900 9.690330 23.868500
H 18.562600 9.938790 22.900000
H 19.332000 10.186000 23.488900
H 20.113100 10.681700 23.109200
H 20.341300 10.548200 24.110100
H 17.769800 9.194650 24.248100
H 17.635500 8.831080 25.425200
H 18.539200 9.441880 24.837000
H 18.527500 9.193420 25.805600
H 16.988700 8.698970 24.627700
H 19.320300 9.937560 24.457400
H 20.089700 10.184800 25.046300
H 19.425800 9.688920 25.666900
H 16.792000 8.862510 23.639500
H 17.716100 9.732500 22.093900
H 18.618200 10.223100 21.962200
H 19.512200 10.574800 22.348000
H 17.690000 9.283650 23.766600
H 17.047700 9.234500 22.707900
H 18.152100 9.718640 22.993800
H 18.588000 9.704780 23.893600
H 19.050100 10.139800 23.120800
H 20.158500 10.693400 23.147900
H 19.486000 10.125900 24.020600
H 20.384100 10.547100 24.147600
H 17.663900 8.834790 25.439200
H 18.126000 9.269790 24.666400
H 18.557900 9.186490 25.825000
H 17.017500 8.716210 24.639300
H 19.024000 9.690920 24.793400
H 19.459900 9.677060 25.693200
H 20.128400 10.175100 25.079300
H 16.766800 8.885750 23.660500
H 17.674200 9.751680 22.102800
H 18.576400 10.238800 21.959300
H 19.476600 10.587200 22.333400
H 17.790500 9.488870 23.308300
H 17.011900 9.256430 22.725500
H 18.569100 9.721320 23.891100
H 18.572700 9.980050 22.925200
H 19.351400 10.212500 23.508000
H 20.133600 10.703700 23.124900
H 20.371500 10.556900 24.121700
H 17.786900 9.230140 24.274200
H 17.661700 8.855390 25.448800
H 18.565500 9.462580 24.857000
H 18.561900 9.203840 25.822900
H 17.004700 8.738960 24.657300
H 19.464000 9.690950 25.679400
H 19.347800 9.953760 24.473900
H 20.126400 10.186200 25.056700
H 16.738800 8.835280 23.671100
H 17.660600 9.706300 22.124700
H 18.563800 10.194100 21.991100
H 17.765600 9.439780 23.330400
H 16.992600 9.208940 22.739600
H 18.538700 9.670620 23.921200
H 18.551300 9.932360 22.956200
H 19.324300 10.163200 23.546900
H 20.110000 10.655800 23.172700
H 20.338500 10.506000 24.171200