LAMMPS (3 Mar 2020)
OMP_NUM_THREADS environment is not set. Defaulting to 1 thread. (src/comm.cpp:94)
  using 1 OpenMP thread(s) per MPI task
Reading restart file ...
  restart file = 3 Mar 2020, LAMMPS = 3 Mar 2020
  restoring atom style full from restart
  orthogonal box = (0.650903 0.650903 0.650903) to (33.3491 33.3491 33.3491)
  6 by 6 by 6 MPI processor grid
  restoring pair style hybrid/overlay from restart
  restoring bond style fene from restart
  28425 atoms
  8700 bonds
Finding 1-2 1-3 1-4 neighbors ...
  special bond factors lj:   0          1          1         
  special bond factors coul: 0          1          1         
  2 = max # of 1-2 neighbors
  6 = max # of special neighbors
  special bonds CPU = 2.45285 secs
  read_restart CPU = 2.59913 secs
Resetting global fix info from restart file:
  fix style: nvt, fix ID: pt
75 rigid bodies with 1425 atoms
Resetting global fix info from restart file:
  fix style: rigid/nvt, fix ID: ri
System init for write_data ...
PPPM initialization ...
  using 12-bit tables for long-range coulomb (src/kspace.cpp:332)
  G vector (1/distance) = 1.26823
  grid = 135 135 135
  stencil order = 5
  estimated absolute RMS force accuracy = 0.000112309
  estimated relative force accuracy = 0.000112309
  using double precision FFTW3
  3d grid and FFT values/proc = 24389 12960
All restart file global fix info was re-assigned
Unused restart file peratom fix info:
  fix style: STORE, fix ID: par_COMPUTE_STORE
WARNING: Neighbor exclusions used with KSpace solver may give inconsistent Coulombic energies (src/neighbor.cpp:486)
Neighbor list info ...
  update every 1 steps, delay 0 steps, check yes
  max neighbors/atom: 2000, page size: 100000
  master list distance cutoff = 2.8
  ghost atom cutoff = 2.8
  binsize = 1.4, bins = 24 24 24
  2 neighbor lists, perpetual/occasional/extra = 2 0 0
  (1) pair lj/cut, perpetual
      attributes: half, newton on
      pair build: half/bin/newton
      stencil: half/bin/3d/newton
      bin: standard
  (2) pair coul/long, perpetual, skip from (1)
      attributes: half, newton on
      pair build: skip
      stencil: none
      bin: none
PPPM initialization ...
  using 12-bit tables for long-range coulomb (src/kspace.cpp:332)
  G vector (1/distance) = 1.26823
  grid = 135 135 135
  stencil order = 5
  estimated absolute RMS force accuracy = 0.000112309
  estimated relative force accuracy = 0.000112309
  using double precision FFTW3
  3d grid and FFT values/proc = 24389 12960
WARNING: Neighbor exclusions used with KSpace solver may give inconsistent Coulombic energies (src/neighbor.cpp:486)
Neighbor list info ...
  update every 1 steps, delay 0 steps, check yes
  max neighbors/atom: 2000, page size: 100000
  master list distance cutoff = 2.8
  ghost atom cutoff = 2.8
  binsize = 1.4, bins = 24 24 24
  2 neighbor lists, perpetual/occasional/extra = 2 0 0
  (1) pair lj/cut, perpetual
      attributes: half, newton on
      pair build: half/bin/newton
      stencil: half/bin/3d/newton
      bin: standard
  (2) pair coul/long, perpetual, skip from (1)
      attributes: half, newton on
      pair build: skip
      stencil: none
      bin: none
Setting up Verlet run ...
  Unit style    : lj
  Current step  : 12000000
  Time step     : 0.005
Per MPI rank memory allocation (min/avg/max) = 11.4 | 11.54 | 11.75 Mbytes
Step Temp Press Volume 
12000000   0.79864451  -0.57751973    34959.991 
12010000   0.79650917  -0.18715187    34959.991 
12020000   0.79519845 -0.082543951    34959.991 
12030000   0.79590287  -0.19476128    34959.991 
12040000   0.80569069  -0.09465384    34959.991 
12050000   0.80387901  -0.13095993    34959.991 
12060000   0.79968738 -0.097015489    34959.991 
12070000   0.79875763  -0.10011799    34959.991 
12080000   0.80139332 -0.086031051    34959.991 
12090000   0.80320367  -0.18232591    34959.991 
12100000   0.80361611 -0.095112245    34959.991 
12110000   0.80608205 -0.068674478    34959.991 
12120000   0.80055941  -0.13816412    34959.991 
12130000   0.79838577 -0.090616894    34959.991 
12140000   0.80549209  -0.12779978    34959.991 
12150000    0.8000277  -0.18419183    34959.991 
12160000   0.79737045  -0.11587062    34959.991 
12170000   0.80051405  -0.15137815    34959.991 
12180000   0.79782233  -0.17804816    34959.991 
12190000   0.80144088  -0.17860352    34959.991 
12200000   0.80494672   -0.1813969    34959.991 
12210000   0.79353912  -0.13125366    34959.991 
12220000   0.79775989  -0.12807683    34959.991 
12230000   0.79777649  -0.22685656    34959.991 
12240000   0.80373201 -0.043209138    34959.991 
12250000   0.80122899  -0.11960209    34959.991 
12260000   0.80397755  -0.13786549    34959.991 
12270000   0.80201687  -0.20955835    34959.991 
12280000   0.79732465  -0.17644191    34959.991 
12290000   0.79692463   -0.0719412    34959.991 
12300000   0.79722496  -0.10827325    34959.991 
12310000   0.80170539  -0.15140364    34959.991 
12320000   0.79434802  -0.14249963    34959.991 
12330000   0.80125141  -0.14806303    34959.991 
12340000   0.79600331  -0.10884439    34959.991 
12350000   0.80127209  -0.12441724    34959.991 
12360000   0.80033127  -0.14770115    34959.991 
12370000   0.79704851    -0.162109    34959.991 
12380000   0.80064438  -0.18524922    34959.991 
12390000   0.80460974  -0.13889333    34959.991 
12400000   0.79980043   -0.1237082    34959.991 
12410000   0.79794123  -0.15364475    34959.991 
12420000   0.79438311  -0.11445006    34959.991 
12430000   0.80215414  -0.12224826    34959.991 
12440000   0.79928382 -0.097454509    34959.991 
12450000   0.80621739  -0.15057137    34959.991 
12460000   0.80912418  -0.15475286    34959.991 
12470000   0.80380142  -0.19754745    34959.991 
12480000   0.80165983  -0.13557215    34959.991 
12490000   0.80226141  -0.22093744    34959.991 
12500000    0.7943191  -0.12473374    34959.991 
12510000   0.80201786  -0.10535248    34959.991 
12520000   0.80313738  -0.10554334    34959.991 
12530000     0.800635   -0.1623642    34959.991 
12540000   0.80220748  -0.20654709    34959.991 
12550000   0.79698633  -0.12441311    34959.991 
12560000   0.80389773  -0.11103062    34959.991 
12570000   0.80232554  -0.14915488    34959.991 
12580000   0.80489604  -0.10367463    34959.991 
12590000   0.79911601  -0.15806395    34959.991 
12600000   0.79819237  -0.12485306    34959.991 
12610000   0.79316217  -0.15450475    34959.991 
12620000   0.79569626  -0.13464551    34959.991 
12630000   0.80121398  -0.10932936    34959.991 
12640000   0.80221586  -0.12209753    34959.991 
12650000   0.79204437  -0.15025035    34959.991 
12660000   0.80181765  -0.17488138    34959.991 
12670000   0.79527537   -0.1913619    34959.991 
12680000   0.80074926   -0.1733055    34959.991 
12690000   0.79510222  -0.11038241    34959.991 
12700000    0.8043546  -0.10637793    34959.991 
12710000   0.79479076  -0.21133917    34959.991 
12720000   0.80790519  -0.10004834    34959.991 
12730000   0.79936717 -0.081544701    34959.991 
12740000   0.80409944 -0.084470587    34959.991 
12750000   0.79906701  -0.19548913    34959.991 
12760000   0.79184012 -0.091944355    34959.991 
12770000   0.79294934   -0.1507866    34959.991 
12780000   0.79866505  -0.15620546    34959.991 
12790000   0.80433688  -0.12987073    34959.991 
12800000   0.79686459  -0.18642089    34959.991 
12810000   0.79363343  -0.14000049    34959.991 
12820000   0.79714152  -0.10118335    34959.991 
12830000   0.79036109  -0.12400876    34959.991 
12840000    0.7981661  -0.14828113    34959.991 
12850000   0.80547965 -0.093922556    34959.991 
12860000   0.79816395  -0.21513905    34959.991 
12870000   0.80878216  -0.14992723    34959.991 
12880000   0.79764333  -0.16407254    34959.991 
12890000   0.79494143  -0.16993344    34959.991 
12900000   0.79892747  -0.14789343    34959.991 
12910000   0.79587306  -0.18027549    34959.991 
12920000   0.79609441  -0.12252543    34959.991 
12930000   0.79845479 -0.087362476    34959.991 
12940000   0.81005657  -0.10573219    34959.991 
12950000   0.79410685  -0.13567578    34959.991 
12960000   0.80231248  -0.29423021    34959.991 
12970000   0.79690407  -0.18365405    34959.991 
12980000   0.79686795  -0.11637229    34959.991 
12990000   0.80357192  -0.20394778    34959.991 
13000000   0.79870764  -0.10641898    34959.991 
Loop time of 20483.7 on 216 procs for 1000000 steps with 28425 atoms

Performance: 21089.983 tau/day, 48.819 timesteps/s
99.8% CPU use with 216 MPI tasks x 1 OpenMP threads

MPI task timing breakdown:
Section |  min time  |  avg time  |  max time  |%varavg| %total
---------------------------------------------------------------
Pair    | 167.92     | 256.28     | 346.6      | 215.5 |  1.25
Bond    | 1.4537     | 2.3989     | 3.3855     |  23.7 |  0.01
Kspace  | 18970      | 19141      | 19332      |  61.1 | 93.44
Neigh   | 140.72     | 146.74     | 151.9      |  20.2 |  0.72
Comm    | 285.32     | 392.72     | 550.92     | 302.4 |  1.92
Output  | 0.014975   | 0.018923   | 0.02852    |   1.2 |  0.00
Modify  | 359.43     | 422.59     | 513.36     | 174.2 |  2.06
Other   |            | 122.1      |            |       |  0.60

Nlocal:    131.597 ave 234 max 15 min
Histogram: 4 3 1 4 52 110 27 10 3 2
Nghost:    964.903 ave 1188 max 451 min
Histogram: 2 3 2 4 7 17 56 83 28 14
Neighs:    5078.92 ave 13696 max 130 min
Histogram: 7 3 40 112 27 14 10 0 2 1

Total # of neighbors = 1097046
Ave neighs/atom = 38.5944
Ave special neighs/atom = 0.612137
Neighbor list builds = 134320
Dangerous builds = 0
PPPM initialization ...
  using 12-bit tables for long-range coulomb (src/kspace.cpp:332)
  G vector (1/distance) = 1.26823
  grid = 135 135 135
  stencil order = 5
  estimated absolute RMS force accuracy = 0.000112309
  estimated relative force accuracy = 0.000112309
  using double precision FFTW3
  3d grid and FFT values/proc = 24389 12960
WARNING: Neighbor exclusions used with KSpace solver may give inconsistent Coulombic energies (src/neighbor.cpp:486)
Neighbor list info ...
  update every 1 steps, delay 0 steps, check yes
  max neighbors/atom: 2000, page size: 100000
  master list distance cutoff = 2.8
  ghost atom cutoff = 2.8
  binsize = 1.4, bins = 24 24 24
  7 neighbor lists, perpetual/occasional/extra = 2 5 0
  (1) pair lj/cut, perpetual
      attributes: half, newton on
      pair build: half/bin/newton
      stencil: half/bin/3d/newton
      bin: standard
  (2) pair coul/long, perpetual, skip from (1)
      attributes: half, newton on
      pair build: skip
      stencil: none
      bin: none
  (3) compute rdf, occasional, copy from (1)
      attributes: half, newton on
      pair build: copy
      stencil: none
      bin: none
  (4) compute rdf, occasional, copy from (1)
      attributes: half, newton on
      pair build: copy
      stencil: none
      bin: none
  (5) compute rdf, occasional, copy from (1)
      attributes: half, newton on
      pair build: copy
      stencil: none
      bin: none
  (6) compute rdf, occasional, copy from (1)
      attributes: half, newton on
      pair build: copy
      stencil: none
      bin: none
  (7) compute rdf, occasional, copy from (1)
      attributes: half, newton on
      pair build: copy
      stencil: none
      bin: none
Setting up Verlet run ...
  Unit style    : lj
  Current step  : 0
  Time step     : 0.005
Per MPI rank memory allocation (min/avg/max) = 19.13 | 20.66 | 21.31 Mbytes
Step Temp Press PotEng KinEng E_pair E_bond TotEng 
       0   0.79870764  -0.20417746    2.8205558    1.1442804   -3.4861646    6.3067204    3.9648362 
   10000   0.79357584  -0.21251362    2.8437391    1.1369283   -3.4625439     6.306283    3.9806674 
   20000   0.79452688   -0.1333754    2.8355689    1.1382908   -3.4729266    6.3084955    3.9738597 
   30000   0.80468879  -0.16659946    2.8356436    1.1528494    -3.474976    6.3106196     3.988493 
   40000   0.79647134  -0.16816255    2.8289617    1.1410765   -3.4777968    6.3067586    3.9700383 
   50000   0.80588138  -0.16940629    2.8210769     1.154558   -3.4867218    6.3077987    3.9756349 
   60000   0.79880766  -0.20903536    2.8252417    1.1444237   -3.4847658    6.3100074    3.9696654 
   70000   0.79505989  -0.18805788    2.8294359    1.1390544   -3.4776068    6.3070427    3.9684903 
   80000   0.79423977  -0.19251895    2.8378999    1.1378794   -3.4684689    6.3063687    3.9757793 
   90000   0.79596755  -0.11161072    2.8229591    1.1403548   -3.4874674    6.3104265    3.9633139 
  100000   0.79756077  -0.10557143      2.81175    1.1426373   -3.4950505    6.3068006    3.9543874 
  110000   0.80385067   -0.1200437    2.8269461    1.1516487   -3.4832552    6.3102013    3.9785948 
  120000   0.80889357   -0.1436884    2.8296691    1.1588734   -3.4801921    6.3098611    3.9885425 
  130000   0.79937001  -0.10938812    2.8326393    1.1452294   -3.4815084    6.3141477    3.9778687 
  140000   0.79800702  -0.13542179    2.8262146    1.1432767   -3.4826995    6.3089141    3.9694912 
  150000   0.80280755  -0.16984195    2.8179207    1.1501542   -3.4921124    6.3100331    3.9680749 
  160000   0.80165001 -0.076996152    2.8124692    1.1484958   -3.5004072    6.3128764     3.960965 
  170000   0.80518901 -0.066285478    2.8244615     1.153566   -3.4867308    6.3111922    3.9780275 
  180000   0.80457586  -0.12985761    2.8424012    1.1526876   -3.4649796    6.3073808    3.9950888 
  190000   0.79871509  -0.16367722    2.8396203    1.1442911   -3.4679611    6.3075815    3.9839114 
  200000   0.79601244  -0.17749298    2.8312437    1.1404191   -3.4778761    6.3091198    3.9716628 
  210000     0.796614  -0.19103181    2.8336751    1.1412809   -3.4763731    6.3100482     3.974956 
  220000   0.80038127  -0.17205228    2.8251408    1.1466782   -3.4789591    6.3040998    3.9718189 
  230000   0.79874414  -0.19410902    2.8225202    1.1443327   -3.4897352    6.3122555    3.9668529 
  240000   0.79694869  -0.17448444    2.8329993    1.1417604   -3.4725882    6.3055874    3.9747597 
  250000   0.79602085  -0.14656562    2.8469993    1.1404311   -3.4661045    6.3131038    3.9874305 
  260000   0.80058595 -0.098850352    2.8376161    1.1469714   -3.4745313    6.3121474    3.9845875 
  270000   0.80054906  -0.20363311    2.8385449    1.1469185   -3.4730895    6.3116344    3.9854635 
  280000   0.80001272  -0.17993239    2.8356683    1.1461501   -3.4732646    6.3089329    3.9818184 
  290000   0.80361408  -0.14065488    2.8289658    1.1513097   -3.4794007    6.3083664    3.9802755 
  300000   0.79521597  -0.14518502    2.8182816     1.139278   -3.4899551    6.3082366    3.9575596 
  310000   0.79452037  -0.12237093     2.817459    1.1382815   -3.4930621    6.3105211    3.9557404 
  320000   0.80085286  -0.10414576     2.816416    1.1473538    -3.493947     6.310363    3.9637698 
  330000   0.80101041  -0.14651936    2.8291716    1.1475795   -3.4774534     6.306625    3.9767511 
  340000   0.80466267  -0.16806951    2.8089211     1.152812   -3.4976444    6.3065655    3.9617331 
  350000   0.80452317  -0.12939402    2.8377174    1.1526121   -3.4738839    6.3116013    3.9903295 
  360000   0.79617256  -0.15349512    2.8142207    1.1406485   -3.4927985    6.3070192    3.9548692 
  370000   0.79830009  -0.17500609     2.833272    1.1436965   -3.4779615    6.3112335    3.9769686 
  380000   0.79608796  -0.15409595    2.8247976    1.1405273   -3.4793821    6.3041797    3.9653249 
  390000   0.79219998  -0.13192264     2.840161    1.1349571   -3.4655588    6.3057198    3.9751181 
  400000   0.79823874   -0.1137871    2.8338964    1.1436086   -3.4758014    6.3096978     3.977505 
  410000    0.7988701  -0.10892689    2.8262472    1.1445132   -3.4808771    6.3071243    3.9707604 
  420000    0.8044692  -0.14688888    2.8147534    1.1525348   -3.4926333    6.3073867    3.9672882 
  430000   0.81099864 -0.076459232    2.8289266    1.1618893   -3.4817464     6.310673    3.9908159 
  440000   0.80410234  -0.19554375    2.8377251    1.1520092   -3.4716077    6.3093328    3.9897343 
  450000   0.79959436  -0.13379128    2.8338414    1.1455508   -3.4729482    6.3067897    3.9793922 
  460000   0.79461057 -0.097827204    2.8323775    1.1384107   -3.4771193    6.3094968    3.9707882 
  470000   0.79895532  -0.13281466    2.8396834    1.1446352   -3.4702806     6.309964    3.9843186 
  480000   0.79377529  -0.18651319    2.8201458     1.137214   -3.4874307    6.3075766    3.9573599 
  490000   0.79768039  -0.17362147    2.8292619    1.1428087   -3.4763553    6.3056172    3.9720706 
  500000   0.79982835  -0.19450862    2.8311904     1.145886   -3.4783221    6.3095125    3.9770764 
  510000   0.79921644  -0.13067097    2.8474655    1.1450093   -3.4635275     6.310993    3.9924748 
  520000   0.80148025  -0.20002365    2.8397918    1.1482526   -3.4681155    6.3079073    3.9880444 
  530000   0.79681118  -0.11036786    2.8318451    1.1415634   -3.4787922    6.3106373    3.9734085 
  540000   0.80366653  -0.16453124    2.8196577    1.1513848   -3.4927023      6.31236    3.9710425 
  550000   0.79884044  -0.18373797     2.826205    1.1444707   -3.4824635    6.3086685    3.9706757 
  560000   0.80580928  -0.12398434    2.8453928    1.1544547   -3.4612144    6.3066072    3.9998474 
  570000   0.80451829  -0.13791735    2.8398312    1.1526051   -3.4673788      6.30721    3.9924363 
  580000   0.80426174  -0.15939735    2.8470713    1.1522376    -3.460182    6.3072533    3.9993089 
  590000   0.80418906  -0.17675216    2.8305405    1.1521334    -3.479342    6.3098824    3.9826739 
  600000   0.80048482  -0.14488703    2.8436417    1.1468265   -3.4659474    6.3095891    3.9904682 
  610000   0.80349804  -0.12784555     2.822772    1.1511434   -3.4855308    6.3083028    3.9739155 
  620000   0.80318837   -0.1657108     2.824364    1.1506998   -3.4873296    6.3116936    3.9750638 
  630000   0.80281221  -0.13925005    2.8444922    1.1501609   -3.4643901    6.3088823    3.9946531 
  640000   0.80102032  -0.20100458    2.8179068    1.1475937   -3.4904501    6.3083569    3.9655005 
  650000   0.80513341  -0.19594891    2.8173136    1.1534864   -3.4944045    6.3117181       3.9708 
  660000   0.80190057  -0.14923924      2.82502    1.1488548   -3.4868268    6.3118467    3.9738748 
  670000    0.7995962  -0.16502695    2.8375167    1.1455534   -3.4701289    6.3076456    3.9830701 
  680000   0.80634517  -0.06784281    2.8204261    1.1552224   -3.4881383    6.3085644    3.9756485 
  690000   0.79733455 -0.054039621    2.8182127    1.1423132   -3.4911759    6.3093886    3.9605259 
  700000   0.80264779  -0.17130071    2.8308477    1.1499253   -3.4796294    6.3104771     3.980773 
  710000   0.80482736 -0.069921799    2.8247846    1.1530479   -3.4813505    6.3061352    3.9778325 
  720000    0.7974397  -0.11554908    2.8298933    1.1424639   -3.4777139    6.3076073    3.9723572 
  730000   0.79330087  -0.20274263    2.8358786    1.1365343   -3.4728618    6.3087404    3.9724129 
  740000   0.80215734  -0.16467664    2.8296393    1.1492227   -3.4787838    6.3084231     3.978862 
  750000   0.80759979  -0.14382973    2.8268051    1.1570199   -3.4820789    6.3088839    3.9838249 
  760000   0.79811002  -0.13047545    2.8264308    1.1434242   -3.4845585    6.3109893     3.969855 
  770000   0.79696369  -0.10241725    2.8512409    1.1417819   -3.4589805    6.3102214    3.9930228 
  780000   0.79607164  -0.19620581    2.8276753    1.1405039   -3.4818134    6.3094888    3.9681792 
  790000   0.79558401  -0.16350538    2.8302287    1.1398053   -3.4759516    6.3061803     3.970034 
  800000    0.7961211  -0.15656659    2.8251223    1.1405748   -3.4832266     6.308349    3.9656971 
  810000   0.79965567    -0.113981    2.8327365    1.1456386   -3.4739592    6.3066957    3.9783751 
  820000   0.79635531  -0.13353274    2.8432393    1.1409103   -3.4646425    6.3078818    3.9841497 
  830000   0.79880179  -0.16880538    2.8397714    1.1444153   -3.4711981    6.3109695    3.9841867 
  840000   0.80699668  -0.12304089    2.8265398    1.1561558   -3.4828718    6.3094116    3.9826956 
  850000   0.80859378  -0.11782548    2.8483406    1.1584439   -3.4614685    6.3098091    4.0067846 
  860000   0.79918452  -0.14364421    2.8344249    1.1449636   -3.4780659    6.3124908    3.9793886 
  870000   0.79586013   -0.1887068    2.8389077    1.1402009   -3.4697796    6.3086873    3.9791086 
  880000   0.80566312  -0.15092608    2.8260885    1.1542453   -3.4840831    6.3101716    3.9803338 
  890000   0.80645085  -0.12182012    2.8332086    1.1553738   -3.4760375     6.309246    3.9885824 
  900000   0.80179348  -0.15413515    2.8280283    1.1487014   -3.4799411    6.3079694    3.9767297 
  910000   0.79547503  -0.15750485    2.8334836    1.1396492   -3.4735131    6.3069967    3.9731328 
  920000   0.79992502  -0.12760794    2.8226673    1.1460245   -3.4855426    6.3082098    3.9686918 
  930000   0.79779493  -0.19777728    2.8370127    1.1429728   -3.4728319    6.3098446    3.9799855 
  940000   0.79741725  -0.24022074    2.8185824    1.1424317   -3.4860972    6.3046795    3.9610141 
  950000   0.80204123   -0.1309081    2.8358174    1.1490563   -3.4748354    6.3106527    3.9848737 
  960000    0.7950496  -0.10915443    2.8256706    1.1390397   -3.4815358    6.3072064    3.9647103 
  970000   0.81039474 -0.052305181    2.8267213    1.1610241   -3.4826247    6.3093459    3.9877454 
  980000   0.80427543  -0.20849523    2.8297384    1.1522572   -3.4788165    6.3085549    3.9819956 
  990000   0.78789027  -0.20490274    2.8031908    1.1287827   -3.5076155    6.3108064    3.9319736 
 1000000   0.80006461  -0.11335185     2.833998    1.1462245   -3.4731421      6.30714    3.9802224 
 1010000    0.8039212  -0.17364856    2.8198093    1.1517497   -3.4895619    6.3093712     3.971559 
 1020000   0.80527678  -0.13218452    2.8346028    1.1536918   -3.4755687    6.3101716    3.9882946 
 1030000   0.79130813  -0.11583008    2.8454228    1.1336794   -3.4629975    6.3084203    3.9791022 
 1040000   0.80038732   -0.1178175    2.8232243    1.1466868   -3.4867498    6.3099741    3.9699111 
 1050000   0.79875067 -0.094966711    2.8277171    1.1443421   -3.4835932    6.3113104    3.9720592 
 1060000   0.80162346  -0.14206447    2.8181889    1.1484578   -3.4916192    6.3098081    3.9666467 
 1070000   0.79764781  -0.14081954    2.8367103     1.142762   -3.4749624    6.3116727    3.9794724 
 1080000   0.80375573  -0.12773332    2.8424204    1.1515126   -3.4683435     6.310764    3.9939331 
 1090000   0.79635641  -0.16260722    2.8354641    1.1409119   -3.4733786    6.3088427     3.976376 
 1100000   0.79510098  -0.16125508    2.8263135    1.1391133   -3.4805377    6.3068512    3.9654267 
 1110000   0.79718754  -0.15797026    2.8425009    1.1421026   -3.4668067    6.3093076    3.9846035 
 1120000   0.79493549  -0.23128427    2.8287712    1.1388762    -3.478249    6.3070202    3.9676474 
 1130000   0.79461565  -0.13290983    2.8255338     1.138418   -3.4821011    6.3076349    3.9639517 
 1140000   0.79627666  -0.10153583    2.8527739    1.1407976    -3.458072    6.3108459    3.9935716 
 1150000   0.79944586  -0.14747156     2.830508     1.145338   -3.4770218    6.3075298     3.975846 
 1160000   0.79292445  -0.10741692    2.8284704     1.135995   -3.4782173    6.3066876    3.9644654 
 1170000   0.80363817  -0.14575429    2.8269669    1.1513442   -3.4812977    6.3082646    3.9783111 
 1180000   0.80307238  -0.17714317    2.8051454    1.1505336    -3.503899    6.3090444     3.955679 
 1190000   0.79941168  -0.11165694     2.831918    1.1452891   -3.4772186    6.3091366     3.977207 
 1200000   0.80425341  -0.16280187    2.8158723    1.1522256   -3.4885793    6.3044517    3.9680979 
 1210000   0.79780783  -0.12805189    2.8267048    1.1429913   -3.4849448    6.3116495    3.9696961 
 1220000    0.8041493  -0.11214991    2.8300788    1.1520765   -3.4785248    6.3086035    3.9821553 
 1230000   0.80128652 -0.094924025    2.8208106    1.1479751    -3.493702    6.3145126    3.9687856 
 1240000   0.79464733  -0.13566279    2.8126064    1.1384633   -3.4952822    6.3078887    3.9510698 
 1250000   0.80474291  -0.14169923    2.8385579    1.1529269   -3.4709374    6.3094953    3.9914848 
 1260000   0.80052865  -0.19706906    2.8445764    1.1468893   -3.4649086     6.309485    3.9914657 
 1270000    0.8016083  -0.17312547    2.8284456    1.1484361   -3.4806079    6.3090535    3.9768817 
 1280000   0.79956377  -0.12479399    2.8192207     1.145507   -3.4916404    6.3108612    3.9647277 
 1290000   0.80130969  -0.18097194    2.8340657    1.1480083   -3.4746481    6.3087138     3.982074 
 1300000    0.8100196  -0.06908511    2.8294401    1.1604867   -3.4760232    6.3054632    3.9899267 
 1310000    0.8026663  -0.17685887    2.8323481    1.1499518   -3.4748589    6.3072071       3.9823 
 1320000   0.79770169  -0.13056976    2.8443886    1.1428392   -3.4670621    6.3114506    3.9872278 
 1330000   0.79646564  -0.19085375    2.8185592    1.1410684   -3.4901728     6.308732    3.9596276 
 1340000   0.80257362  -0.13914824    2.8228133    1.1498191   -3.4844317    6.3072451    3.9726324 
 1350000   0.79484189  -0.10754421    2.8236576    1.1387421   -3.4875662    6.3112238    3.9623997 
 1360000    0.8060557  -0.17511792    2.8309508    1.1548077   -3.4843931    6.3153438    3.9857585 
 1370000   0.79328145  -0.12787019    2.8268992    1.1365065   -3.4856954    6.3125946    3.9634057 
 1380000   0.79903376  -0.21533939    2.8308032    1.1447476   -3.4786899    6.3094931    3.9755509 
 1390000   0.80357012  -0.12560867    2.8292033    1.1512467   -3.4791142    6.3083174      3.98045 
 1400000   0.80456071 -0.074837416    2.8223711    1.1526659    -3.490352    6.3127231     3.975037 
 1410000   0.79802764 -0.069146953    2.8116102    1.1433062   -3.4956094    6.3072197    3.9549164 
 1420000   0.80270033  -0.12037544    2.8298072    1.1500006   -3.4816678     6.311475    3.9798078 
 1430000   0.79496247  -0.13433251    2.8353977    1.1389148   -3.4745465    6.3099442    3.9743126 
 1440000   0.79951287  -0.15882415    2.8249887     1.145434   -3.4868617    6.3118503    3.9704227 
 1450000   0.79841538  -0.11379274    2.8261369    1.1438617   -3.4816586    6.3077955    3.9699986 
 1460000   0.79599118  -0.19267831    2.8365701    1.1403886   -3.4728381    6.3094082    3.9769587 
 1470000   0.80410941  -0.20637239    2.8312638    1.1520193   -3.4781899    6.3094538    3.9832832 
 1480000   0.79944462  -0.15905328    2.8313252    1.1453363    -3.478757    6.3100823    3.9766615 
 1490000   0.80479615  -0.11126745    2.8259323    1.1530032   -3.4825575    6.3084898    3.9789355 
 1500000   0.79845234  -0.11566789    2.8373042    1.1439147   -3.4735979    6.3109021    3.9812188 
 1510000   0.80712042  -0.19316798    2.8252682    1.1563331   -3.4838869    6.3091551    3.9816013 
 1520000   0.80001992  -0.18717579      2.81906    1.1461605   -3.4897498    6.3088098    3.9652204 
 1530000   0.79946791  -0.13262758    2.8292152    1.1453696   -3.4818228     6.311038    3.9745848 
 1540000   0.80379925  -0.10083397    2.8110564     1.151575   -3.4994013    6.3104577    3.9626314 
 1550000   0.80238501 -0.075260967    2.8074764    1.1495488   -3.5022624    6.3097388    3.9570252 
 1560000   0.80325131  -0.11840214    2.8368048      1.15079   -3.4717134    6.3085182    3.9875948 
 1570000   0.80084003  -0.11515209    2.8088411    1.1473354   -3.5006634    6.3095045    3.9561765 
 1580000   0.79558196  -0.11548206    2.8236536    1.1398024   -3.4851355     6.308789    3.9634559 
 1590000   0.80462148  -0.14758687    2.8392884     1.152753   -3.4702463    6.3095348    3.9920414 
 1600000    0.7995072  -0.11787171    2.8351678    1.1454259   -3.4759144    6.3110822    3.9805937 
 1610000   0.80506477  -0.14239967    2.8378614     1.153388   -3.4730606     6.310922    3.9912494 
 1620000   0.80252242  -0.14950193    2.8146291    1.1497457   -3.4946827    6.3093118    3.9643748 
 1630000   0.80361631  -0.14669385    2.8443187    1.1513129   -3.4626795    6.3069981    3.9956316 
 1640000   0.79948369  -0.13100387    2.8332379    1.1453922   -3.4769879    6.3102258    3.9786301 
 1650000   0.80302792  -0.12084154    2.8331013    1.1504699   -3.4740103    6.3071116    3.9835712 
 1660000   0.80673098  -0.15414141    2.8325608    1.1557752   -3.4738929    6.3064537     3.988336 
 1670000    0.8027252 -0.080167093    2.8282244    1.1500362   -3.4828531    6.3110776    3.9782607 
 1680000   0.80144046  -0.18619105     2.834063    1.1481956   -3.4786994    6.3127625    3.9822587 
 1690000   0.79683867  -0.17999441    2.8375564    1.1416028   -3.4704925    6.3080489    3.9791592 
 1700000   0.79782691  -0.20592502    2.8369428    1.1430186   -3.4734659    6.3104087    3.9799614 
 1710000   0.81014611   -0.1545517    2.8327227    1.1606679   -3.4740237    6.3067464    3.9933906 
 1720000   0.80162144  -0.19808621    2.8374448    1.1484549   -3.4706889    6.3081337    3.9858997 
 1730000   0.80306658 -0.059888968    2.8305288    1.1505253   -3.4810832     6.311612    3.9810541 
 1740000    0.7988682 -0.074266188    2.8398121    1.1445104   -3.4697383    6.3095504    3.9843226 
 1750000   0.79087316  -0.11181171    2.8253646    1.1330562   -3.4842389    6.3096035    3.9584209 
 1760000   0.79728845 -0.099961951    2.8312935    1.1422472   -3.4768058    6.3080993    3.9735407 
 1770000   0.79838673 -0.094966093    2.8291333    1.1438206   -3.4773438    6.3064771    3.9729539 
 1780000   0.80104633 -0.088865433     2.823643     1.147631   -3.4867055    6.3103484    3.9712739 
 1790000   0.80694212 -0.090774004    2.8177191    1.1560777   -3.4931489     6.310868    3.9737968 
 1800000    0.7991574 -0.086127431    2.8404003    1.1449248   -3.4705972    6.3109975     3.985325 
 1810000   0.80619124  -0.10826023    2.8228079    1.1550019   -3.4847226    6.3075305    3.9778098 
 1820000   0.79898066   -0.1382762    2.8283778    1.1446716    -3.479802    6.3081798    3.9730494 
 1830000   0.80205864 -0.066966735    2.8438122    1.1490813   -3.4648182    6.3086304    3.9928935 
 1840000   0.80283915  -0.16126229    2.8370595    1.1501995   -3.4708027    6.3078622     3.987259 
 1850000   0.79793757  -0.13430955    2.8160923    1.1431771   -3.4916824    6.3077747    3.9592695 
 1860000   0.79799161  -0.18531178    2.8192634    1.1432546   -3.4895607    6.3088241     3.962518 
 1870000   0.79213333  -0.23113604    2.8421829    1.1348616   -3.4662774    6.3084604    3.9770446 
 1880000   0.80207073 -0.080226021    2.8111593    1.1490986   -3.4969668    6.3081261    3.9602579 
 1890000   0.79977138  -0.14572225    2.8197512    1.1458044   -3.4897539     6.309505    3.9655556 
 1900000   0.79729207  -0.11237806    2.8076413    1.1422524   -3.5026917     6.310333    3.9498937 
 1910000   0.79737649  -0.10276821    2.8160844    1.1423733   -3.4912446     6.307329    3.9584577 
 1920000   0.80368774  -0.12623867    2.8191914    1.1514152   -3.4901172    6.3093085    3.9706066 
 1930000   0.79933248   -0.1095079    2.8284332    1.1451756   -3.4838878     6.312321    3.9736088 
 1940000   0.80257466  -0.13840701    2.8398404    1.1498206   -3.4698383    6.3096786    3.9896609 
 1950000   0.79776748  -0.10340485    2.8231706    1.1429335   -3.4848146    6.3079851     3.966104 
 1960000   0.79799606  -0.17426736    2.8202087    1.1432609   -3.4901265    6.3103352    3.9634697 
 1970000   0.79953219  -0.16469297    2.8413196    1.1454617   -3.4642731    6.3055927    3.9867813 
 1980000    0.7909261   -0.1656312    2.8188447    1.1331321   -3.4887293     6.307574    3.9519768 
 1990000   0.79389062   -0.1219434    2.8364813    1.1373792   -3.4735927     6.310074    3.9738605 
 2000000   0.80594296   -0.1662114    2.8177719    1.1546462   -3.4904957    6.3082676    3.9724181 
 2010000    0.7947494  -0.12235354    2.8313579    1.1386096   -3.4782854    6.3096433    3.9699675 
 2020000   0.79648436 -0.098862967    2.8074474    1.1410952    -3.502404    6.3098514    3.9485426 
 2030000   0.80248351  -0.12255992    2.8421792      1.14969   -3.4669703    6.3091495    3.9918691 
 2040000   0.79991129   -0.1682406    2.8323954    1.1460048    -3.478122    6.3105174    3.9784002 
 2050000   0.80098019  -0.19600487    2.8265902    1.1475362   -3.4822933    6.3088835    3.9741264 
 2060000   0.79732238  -0.15466482    2.8402269    1.1422958   -3.4679614    6.3081883    3.9825227 
 2070000     0.799838  -0.17615331     2.822678    1.1458998   -3.4870113    6.3096893    3.9685778 
 2080000   0.79717605   -0.1453581    2.8298624    1.1420862   -3.4809727    6.3108351    3.9719485 
 2090000   0.79614586 -0.072065344    2.8273416    1.1406102   -3.4807143    6.3080559    3.9679518 
 2100000   0.79793703  -0.10009675     2.820898    1.1431764   -3.4877672    6.3086652    3.9640744 
 2110000    0.7995486  -0.20391863    2.8327958    1.1454852   -3.4769574    6.3097532     3.978281 
 2120000   0.79949073 -0.081809801    2.8347148    1.1454023   -3.4740852       6.3088    3.9801171 
 2130000    0.8062825  -0.11934716     2.836115    1.1551326   -3.4743449      6.31046    3.9912477 
 2140000   0.80135172  -0.11999498     2.837857    1.1480685   -3.4708126    6.3086696    3.9859255 
 2150000   0.79960522  -0.14037977    2.8283137    1.1455663   -3.4821799    6.3104936      3.97388 
 2160000   0.80289714  -0.14032402    2.8237141    1.1502826     -3.48437    6.3080841    3.9739967 
 2170000   0.80150265  -0.16893613    2.8366236    1.1482847   -3.4710236    6.3076472    3.9849083 
 2180000   0.80303503    -0.155435    2.8087962    1.1504801   -3.5011367    6.3099329    3.9592763 
 2190000   0.79818088  -0.15074903     2.835091    1.1435257   -3.4742796    6.3093706    3.9786167 
 2200000   0.79725061  -0.14745396     2.829918     1.142193   -3.4798269    6.3097449     3.972111 
 2210000   0.80583021  -0.17136909    2.8307562    1.1544847   -3.4798876    6.3106438    3.9852409 
 2220000   0.80290047  -0.16066731    2.8298622    1.1502873   -3.4808633    6.3107255    3.9801495 
 2230000   0.80033819 -0.080555225    2.8302297    1.1466164   -3.4770213    6.3072511    3.9768462 
 2240000   0.79859985  -0.17336824    2.8429916     1.144126   -3.4662085    6.3092001    3.9871176 
 2250000   0.80353842 -0.072158961    2.8263223    1.1512013   -3.4849565    6.3112789    3.9775236 
 2260000   0.79603692  -0.12736467    2.8129986    1.1404542   -3.4947486    6.3077472    3.9534527 
 2270000   0.80203421  -0.10433543    2.8114144    1.1490463   -3.4954037    6.3068181    3.9604607 
 2280000   0.80398664 -0.092965335    2.8241751    1.1518435   -3.4860628     6.310238    3.9760186 
 2290000   0.80780334  -0.15515351    2.8318396    1.1573115   -3.4746882    6.3065278    3.9891511 
 2300000   0.80163134  -0.14068896     2.827574    1.1484691   -3.4822843    6.3098583    3.9760431 
 2310000   0.80220146  -0.11086849    2.8295918    1.1492859   -3.4815775    6.3111693    3.9788777 
 2320000   0.80383915  -0.13007886    2.8165024    1.1516321   -3.4904722    6.3069746    3.9681345 
 2330000   0.79739871  -0.07525087     2.826075    1.1424051    -3.483373     6.309448    3.9684802 
 2340000   0.80057749  -0.10428369    2.8171282    1.1469593    -3.489767    6.3068953    3.9640875 
 2350000   0.79760058  -0.14712259    2.8271554    1.1426944   -3.4834307    6.3105861    3.9698498 
 2360000   0.79176735  -0.16976239     2.836544    1.1343373   -3.4740552    6.3105992    3.9708813 
 2370000   0.80065125  -0.17393864    2.8260297     1.147065   -3.4827639    6.3087935    3.9730946 
 2380000   0.79582748  -0.11339257    2.8253043    1.1401541   -3.4863796    6.3116839    3.9654584 
 2390000   0.80100417  -0.15331666    2.8270541    1.1475706   -3.4818787    6.3089329    3.9746247 
 2400000   0.80656816 -0.060577055    2.8203524    1.1555419   -3.4928216     6.313174    3.9758943 
 2410000   0.78850001   -0.1249941    2.8317447    1.1296563   -3.4774065    6.3091511     3.961401 
 2420000   0.80161665  -0.12730633    2.8370975     1.148448   -3.4758516    6.3129491    3.9855456 
 2430000   0.79818138  -0.11614632    2.8378081    1.1435264   -3.4721473    6.3099554    3.9813345 
 2440000   0.79684975  -0.18811727    2.8259315    1.1416187   -3.4806031    6.3065346    3.9675502 
 2450000   0.79345011   -0.1689263    2.8235656    1.1367481   -3.4854228    6.3089885    3.9603138 
 2460000   0.79088896  -0.18908856    2.8369492    1.1330789   -3.4761089    6.3130581    3.9700281 
 2470000   0.79628826 -0.099788901     2.820734    1.1408142   -3.4880201    6.3087541    3.9615483 
 2480000   0.79939804  -0.15069152    2.8243391    1.1452695   -3.4837988    6.3081379    3.9696087 
 2490000   0.80066065  -0.23551061    2.8191621    1.1470784   -3.4923701    6.3115321    3.9662405 
 2500000   0.80803721 -0.075370419    2.8196704    1.1576466   -3.4872163    6.3068867    3.9773169 
 2510000    0.7958001  -0.10683871    2.8199923    1.1401149   -3.4905013    6.3104936    3.9601072 
 2520000   0.79774728  -0.12119412    2.8274189    1.1429045   -3.4856608    6.3130797    3.9703234 
 2530000   0.79639482  -0.21458853    2.8330727    1.1409669   -3.4758561    6.3089288    3.9740396 
 2540000   0.79284426  -0.19560639    2.8242051    1.1358801   -3.4844927    6.3086978    3.9600853 
 2550000   0.79945775  -0.19967613    2.8305768    1.1453551   -3.4767875    6.3073643    3.9759319 
 2560000   0.80394175  -0.14845981    2.8218067    1.1517791   -3.4865105    6.3083172    3.9735859 
 2570000   0.80691189  -0.15087424    2.8209856    1.1560343   -3.4865282    6.3075139      3.97702 
 2580000   0.79995127  -0.15486577    2.8245492    1.1460621   -3.4834461    6.3079954    3.9706114 
 2590000   0.80347086  -0.22056294    2.8337157    1.1511045   -3.4742019    6.3079177    3.9848203 
 2600000    0.8017292  -0.17023238    2.8228567    1.1486093   -3.4861771    6.3090338     3.971466 
 2610000    0.7997598 -0.060755708    2.8303239    1.1457878   -3.4794984    6.3098223    3.9761117 
 2620000    0.8030403  -0.18397832    2.8222395    1.1504877   -3.4863024     6.308542    3.9727272 
 2630000   0.80187383  -0.16927447    2.8451946    1.1488165   -3.4648045    6.3099991    3.9940111 
 2640000   0.79445889  -0.14900972    2.8311733    1.1381934   -3.4791412    6.3103145    3.9693667 
 2650000   0.80614498  -0.20655851    2.8320375    1.1549356    -3.474011    6.3060485    3.9869732 
 2660000   0.79998254  -0.16693046    2.8375379    1.1461069   -3.4727622    6.3103001    3.9836449 
 2670000   0.80066443  -0.14144565    2.8285045    1.1470838   -3.4806678    6.3091724    3.9755883 
 2680000   0.79788481 -0.067736976    2.8180306    1.1431016   -3.4902404     6.308271    3.9611322 
 2690000   0.80078627  -0.13095234    2.8256589    1.1472584   -3.4840267    6.3096856    3.9729173 
 2700000   0.80636717  -0.10290684    2.8234542     1.155254   -3.4863871    6.3098413    3.9787081 
 2710000   0.80422079  -0.14789771    2.8338366    1.1521789   -3.4749749    6.3088115    3.9860155 
 2720000   0.80046914  -0.16579363    2.8383993     1.146804   -3.4728987     6.311298    3.9852034 
 2730000   0.79801986  -0.16968988     2.830396    1.1432951   -3.4826492    6.3130451     3.973691 
 2740000   0.79481268  -0.16396134    2.8108808    1.1387002   -3.4975234    6.3084042    3.9495811 
 2750000   0.80282225  -0.12532198    2.8312652    1.1501753   -3.4789038    6.3101691    3.9814405 
 2760000    0.7944895  -0.16683181    2.8169888    1.1382372   -3.4913601    6.3083488     3.955226 
 2770000   0.80493561  -0.14630158    2.8336767     1.153203   -3.4747283     6.308405    3.9868797 
 2780000   0.80227311  -0.13466066    2.8279616    1.1493885   -3.4822664     6.310228    3.9773501 
 2790000   0.79807962  -0.09374612    2.8299901    1.1433807   -3.4805188    6.3105089    3.9733708 
 2800000   0.80458074 -0.059601294    2.8131888    1.1526946   -3.4966941    6.3098829    3.9658834 
 2810000   0.79588839  -0.12144333    2.8365454    1.1402414   -3.4729837    6.3095291    3.9767867 
 2820000   0.80094158  -0.15323209    2.8400866    1.1474809   -3.4703845    6.3104711    3.9875675 
 2830000   0.79406328 -0.094523329    2.8259526    1.1376266   -3.4797151    6.3056677    3.9635792 
 2840000   0.78946008   -0.1575296    2.8254502    1.1310318   -3.4848828     6.310333     3.956482 
 2850000    0.7988917   -0.1653431    2.8268945    1.1445441   -3.4834222    6.3103167    3.9714386 
 2860000   0.80097804  -0.12954536    2.8385215    1.1475331   -3.4708015     6.309323    3.9860546 
 2870000   0.79603637 -0.073344503    2.8277586    1.1404534   -3.4836802    6.3114388    3.9682119 
 2880000   0.80651021  -0.10062589     2.821407    1.1554589   -3.4875239     6.308931    3.9768659 
 2890000   0.79545849 -0.089652553    2.8252144    1.1396255   -3.4841599    6.3093742    3.9648398 
 2900000   0.80485239  -0.12535505     2.838051    1.1530838    -3.472931     6.310982    3.9911347 
 2910000   0.79748732 -0.094297985    2.8295426    1.1425321    -3.479557    6.3090996    3.9720747 
 2920000    0.7980201   -0.1473077    2.8249158    1.1432954   -3.4821855    6.3071013    3.9682112 
 2930000   0.79206979  -0.14800218    2.8107094    1.1347706     -3.49733    6.3080394      3.94548 
 2940000   0.79598973  -0.11604764    2.8406227    1.1403865   -3.4698377    6.3104605    3.9810093 
 2950000   0.79320727   -0.2060589    2.8227538    1.1364002   -3.4854379    6.3081917     3.959154 
 2960000   0.79761607 -0.081262535    2.8312226    1.1427166   -3.4791775    6.3104001    3.9739391 
 2970000   0.80055782 -0.087327227    2.8194072    1.1469311   -3.4886775    6.3080848    3.9663383 
 2980000   0.80249095  -0.14468624    2.8139531    1.1497006   -3.4957768    6.3097299    3.9636537 
 2990000   0.80427989 -0.085576722    2.8389395    1.1522636   -3.4730343    6.3119738    3.9912031 
 3000000   0.80237933 -0.092702037     2.833386    1.1495407   -3.4775137    6.3108997    3.9829267 
 3010000   0.80482489  -0.13982124    2.8264319    1.1530444   -3.4816909    6.3081228    3.9794763 
 3020000   0.80696739  -0.17872676    2.8396443    1.1561139   -3.4703723    6.3100166    3.9957582 
 3030000   0.80172991  -0.16334309    2.8428442    1.1486103   -3.4660977    6.3089419    3.9914545 
 3040000   0.80324357 -0.091782379     2.816383    1.1507789   -3.4929799    6.3093629    3.9671619 
 3050000   0.79873722  -0.16703218    2.8328595    1.1443228   -3.4750297    6.3078892    3.9771823 
 3060000   0.79709187  -0.16804682    2.8297164    1.1419656   -3.4795017    6.3092182     3.971682 
 3070000   0.80257462 -0.073164704    2.8259004    1.1498205   -3.4836657    6.3095661    3.9757208 
 3080000   0.79529088  -0.16344711      2.82528    1.1393853    -3.486857     6.312137    3.9646653 
 3090000   0.79891725  -0.15183815     2.841462    1.1445807   -3.4645917    6.3060538    3.9860428 
 3100000   0.79642353 -0.095145704    2.8322769     1.141008   -3.4779972    6.3102741    3.9732849 
 3110000    0.8011774 -0.080297799    2.8390916    1.1478188   -3.4713895    6.3104811    3.9869104 
 3120000    0.8004769 -0.073118118    2.8353293    1.1468152   -3.4748636    6.3101928    3.9821444 
 3130000   0.80115475  -0.10059368    2.8264856    1.1477863   -3.4843339    6.3108195    3.9742719 
 3140000    0.7956213  -0.11772663    2.8207729    1.1398587   -3.4863019    6.3070748    3.9606316 
 3150000   0.79274493 -0.081852194     2.816771    1.1357378   -3.4920856    6.3088566    3.9525088 
 3160000   0.80141018  -0.15028062    2.8327198    1.1481522   -3.4767712     6.309491     3.980872 
 3170000   0.79962085  -0.14102885    2.8428899    1.1455887   -3.4680225    6.3109124    3.9884786 
 3180000   0.79605845  -0.12591509    2.8371523     1.140485   -3.4719407     6.309093    3.9776373 
 3190000    0.8046046  -0.14197796    2.8220113    1.1527288   -3.4872349    6.3092461      3.97474 
 3200000   0.79360927  -0.14074572    2.8263159    1.1369761   -3.4852604    6.3115763     3.963292 
 3210000   0.79923246   -0.1612793    2.8034824    1.1450323   -3.5087221    6.3122045    3.9485147 
 3220000   0.80371614  -0.17337459    2.8356674    1.1514559   -3.4767682    6.3124356    3.9871233 
 3230000   0.80022486  -0.10981273    2.8202432    1.1464541   -3.4871131    6.3073563    3.9666973 
 3240000   0.80175776  -0.14255569    2.8293201    1.1486502   -3.4820787    6.3113988    3.9779703 
 3250000   0.79817318  -0.13357423    2.8384132    1.1435147   -3.4691766    6.3075898    3.9819279 
 3260000   0.79864726  -0.12922031    2.8382646    1.1441939   -3.4710176    6.3092823    3.9824585 
 3270000   0.80936204  -0.14271422    2.8210875    1.1595446   -3.4864724      6.30756    3.9806321 
 3280000   0.79648364 -0.049110208     2.834263    1.1410942   -3.4743443    6.3086073    3.9753571 
 3290000   0.79801091  -0.12283974    2.8090084    1.1432822   -3.5025958    6.3116042    3.9522906 
 3300000   0.80591212  -0.15196166    2.8230647     1.154602   -3.4867804     6.309845    3.9776667 
 3310000   0.80101998  -0.16450516    2.8427242    1.1475932   -3.4699162    6.3126404    3.9903174 
 3320000   0.80059659  -0.17981933     2.815484    1.1469866   -3.4956079    6.3110919    3.9624706 
 3330000   0.79590794  -0.16017063    2.8112276    1.1402694   -3.5016499    6.3128775     3.951497 
 3340000   0.80542554  -0.18800078    2.8251088    1.1539049     -3.48397    6.3090788    3.9790137 
 3350000   0.80146337  -0.16763125    2.8210639    1.1482285   -3.4861702    6.3072341    3.9692923 
 3360000   0.80331334  -0.21111288    2.8225746    1.1508788    -3.482768    6.3053426    3.9734535 
 3370000   0.79649588  -0.18772854    2.8236098    1.1411117   -3.4850717    6.3086815    3.9647215 
 3380000   0.78982319  -0.16466172    2.8316776     1.131552   -3.4780721    6.3097497    3.9632296 
 3390000   0.80070994  -0.16033905    2.8340997     1.147149   -3.4760522    6.3101519    3.9812487 
 3400000   0.80019322 -0.087177124    2.8344216    1.1464087   -3.4773605    6.3117821    3.9808304 
 3410000   0.79928448  -0.17970984    2.8335975    1.1451068   -3.4742081    6.3078055    3.9787043 
 3420000   0.79560257  -0.12800463    2.8241001    1.1398319   -3.4901553    6.3142554     3.963932 
 3430000   0.80019895 -0.076413473    2.8452156    1.1464169   -3.4636986    6.3089142    3.9916326 
 3440000    0.8023673  -0.10887072    2.8153026    1.1495235   -3.4989368    6.3142394    3.9648261 
 3450000   0.80612519  -0.18515231    2.8411443    1.1549073   -3.4700306    6.3111748    3.9960515 
 3460000   0.80647771  -0.14611598    2.8474346    1.1554123   -3.4646986    6.3121332    4.0028469 
 3470000   0.79829201  -0.17889824    2.8226334    1.1436849   -3.4881883    6.3108217    3.9663183 
 3480000   0.80026935 -0.066159975    2.8211849    1.1465178   -3.4883577    6.3095426    3.9677027 
 3490000   0.79402718 -0.056908005    2.8183342    1.1375749   -3.4937103    6.3120445    3.9559091 
 3500000   0.79317031  -0.15116743    2.8329939    1.1363473   -3.4795935    6.3125874    3.9693411 
 3510000    0.8020719  -0.14763859    2.8333623    1.1491003    -3.475329    6.3086913    3.9824626 
 3520000   0.79990688  -0.18840836    2.8204539    1.1459985   -3.4894186    6.3098726    3.9664525 
 3530000   0.79510098  -0.10103493    2.8247596    1.1391133   -3.4852283     6.309988    3.9638729 
 3540000   0.79418148  -0.13819004    2.8222354    1.1377959   -3.4858626     6.308098    3.9600313 
 3550000   0.79361143  -0.13234672     2.845813    1.1369792    -3.461672     6.307485    3.9827923 
 3560000   0.80480615  -0.14971434    2.8182397    1.1530175   -3.4900921    6.3083317    3.9712572 
 3570000   0.80066417  -0.10104584    2.8430001    1.1470835    -3.464958     6.307958    3.9900835 
 3580000   0.80641907 -0.098588262    2.8319965    1.1553283   -3.4812378    6.3132343    3.9873248 
 3590000   0.80378514  -0.17132059    2.8337936    1.1515548   -3.4741246    6.3079181    3.9853483 
 3600000   0.80652407  -0.14098172     2.817371    1.1554787   -3.4910672    6.3084382    3.9728497 
 3610000    0.8034616  -0.21875369    2.8190072    1.1510912   -3.4908454    6.3098527    3.9700985 
 3620000   0.79788485  -0.19520297    2.8379751    1.1431016   -3.4708885    6.3088636    3.9810767 
 3630000   0.79911251  -0.16382909    2.8413775    1.1448604   -3.4662225    6.3075999    3.9862379 
 3640000   0.79183107  -0.12785196    2.8383013    1.1344286   -3.4737528    6.3120541    3.9727298 
 3650000   0.79964555   -0.1663579    2.8322325    1.1456241   -3.4735225     6.305755    3.9778567 
 3660000   0.80601142 -0.031929777    2.8430513    1.1547443   -3.4674711    6.3105224    3.9977956 
 3670000   0.79097577  -0.16574467    2.8363255    1.1332032    -3.475431    6.3117566    3.9695288 
 3680000   0.79729655 -0.087244497    2.8311421    1.1422588   -3.4786489     6.309791    3.9734009 
 3690000   0.79342299  -0.17521811    2.8291435    1.1367093   -3.4792365      6.30838    3.9658528 
 3700000   0.80686518  -0.12291691    2.8330834    1.1559674   -3.4776107    6.3106941    3.9890508 
 3710000   0.79407959  -0.10626628    2.8159982      1.13765   -3.4956855    6.3116837    3.9536481 
 3720000   0.79732187  -0.20094077    2.8266448    1.1422951   -3.4836715    6.3103163    3.9689398 
 3730000   0.79348546  -0.13281333    2.8258784    1.1367988   -3.4832661    6.3091446    3.9626772 
 3740000   0.79843915  -0.10001777    2.8237039    1.1438958   -3.4871719    6.3108758    3.9675997 
 3750000    0.7939813  -0.16200503    2.8401444    1.1375091   -3.4691942    6.3093386    3.9776535 
 3760000   0.80090137  -0.20126286    2.8299127    1.1474233   -3.4788762    6.3087889     3.977336 
 3770000   0.79310171  -0.14623828     2.847575     1.136249   -3.4619853    6.3095603     3.983824 
 3780000   0.79745946  -0.15857793    2.8308233    1.1424922   -3.4727346    6.3035579    3.9733155 
 3790000   0.79516922   -0.1168488    2.8288621     1.139211   -3.4810937    6.3099559    3.9680732 
 3800000   0.79040955  -0.12643488    2.8333322     1.132392   -3.4783274    6.3116596    3.9657242 
 3810000   0.80115491 -0.044771723    2.8267309    1.1477865   -3.4850214    6.3117523    3.9745174 
 3820000   0.80443987  -0.10247542    2.8240563    1.1524928    -3.485561    6.3096172    3.9765491 
 3830000   0.80023536  -0.17575209     2.829961    1.1464691   -3.4771925    6.3071536    3.9764302 
 3840000   0.80358626  -0.17764563    2.8260214    1.1512698   -3.4821603    6.3081817    3.9772913 
 3850000   0.80473253  -0.19075699    2.8321073    1.1529121   -3.4763781    6.3084854    3.9850193 
 3860000   0.79945475  -0.11858192     2.833688    1.1453508   -3.4780995    6.3117875    3.9790388 
 3870000   0.79544541  -0.16722347    2.8240997    1.1396067   -3.4859557    6.3100553    3.9637064 
 3880000   0.79987365 -0.066167269    2.8209599    1.1459509   -3.4872919    6.3082518    3.9669108 
 3890000   0.79287942  -0.19554649    2.8272637    1.1359305   -3.4790867    6.3063504    3.9631943 
 3900000   0.80204478  -0.12054547    2.8367003    1.1490614   -3.4716665    6.3083668    3.9857617 
 3910000   0.80386115 -0.067074419    2.8295068    1.1516637   -3.4812031    6.3107099    3.9811705 
 3920000   0.79815254  -0.21619627     2.846826    1.1434851   -3.4622403    6.3090663    3.9903111 
 3930000   0.80386553  -0.10355772    2.8426876    1.1516699   -3.4635561    6.3062437    3.9943575 
 3940000   0.80133933  -0.18547965    2.8440713    1.1480507   -3.4653752    6.3094465     3.992122 
 3950000   0.79499287  -0.12069214    2.8261388    1.1389584   -3.4826014    6.3087402    3.9650972 
 3960000   0.80035923  -0.22695895    2.8070943    1.1466466   -3.4976977     6.304792    3.9537409 
 3970000   0.79520612  -0.21912798    2.8358215    1.1392639   -3.4771365    6.3129581    3.9750854 
 3980000   0.80224702  -0.12174631    2.8291776    1.1493512   -3.4800331    6.3092107    3.9785287 
 3990000   0.79754637  -0.15908351    2.8240268    1.1426167   -3.4879471    6.3119739    3.9666435 
 4000000   0.80693331  -0.17916628    2.8234674     1.156065   -3.4866946     6.310162    3.9795325 
 4010000   0.80156086  -0.16016394     2.826685    1.1483681   -3.4831383    6.3098233    3.9750531 
 4020000   0.80189646  -0.16685443    2.8287548    1.1488489   -3.4821472     6.310902    3.9776037 
 4030000   0.79914423  -0.19771746    2.8388125    1.1449059   -3.4714289    6.3102414    3.9837184 
 4040000   0.79370809  -0.20287338    2.8363577    1.1371177   -3.4741196    6.3104773    3.9734754 
 4050000   0.81126636  -0.16539523     2.832168    1.1622728   -3.4758551     6.308023    3.9944408 
 4060000   0.79937168  -0.17797171    2.8125929    1.1452318   -3.4939123    6.3065052    3.9578247 
 4070000   0.79275055  -0.15672325    2.8327632    1.1357459   -3.4767644    6.3095276    3.9685091 
 4080000   0.79831687  -0.15341912    2.8441744    1.1437206   -3.4646952    6.3088696     3.987895 
 4090000   0.79412878   -0.1817227    2.8127846    1.1377204   -3.4934596    6.3062442    3.9505051 
 4100000   0.80612765  -0.18911582    2.8266821    1.1549108   -3.4800351    6.3067172    3.9815929 
 4110000   0.79576409  -0.11647206    2.8223721    1.1400633   -3.4869065    6.3092786    3.9624354 
 4120000   0.80067452  -0.15801555    2.8211952    1.1470983   -3.4866468     6.307842    3.9682935 
 4130000    0.8020047  -0.16151198    2.8198044     1.149004   -3.4877656      6.30757    3.9688084 
 4140000   0.80404266 -0.087192641    2.8347932    1.1519237   -3.4754176    6.3102109    3.9867169 
 4150000   0.80808108  -0.11690767    2.8365246    1.1577094   -3.4724073    6.3089319     3.994234 
 4160000   0.79755834 -0.051090481    2.8323849    1.1426338   -3.4802742    6.3126591    3.9750187 
 4170000   0.80230847  -0.15330087    2.8266655    1.1494392   -3.4831305     6.309796    3.9761047 
 4180000   0.79976176 -0.038436813    2.8276884    1.1457906   -3.4859111    6.3135995     3.973479 
 4190000   0.80334646 -0.032312769    2.8212203    1.1509263   -3.4891042    6.3103245    3.9721466 
 4200000   0.80263191  -0.21325837    2.8236111    1.1499026   -3.4869752    6.3105862    3.9735137 
 4210000    0.7969875  -0.13787135    2.8235426     1.141816   -3.4872605    6.3108032    3.9653586 
 4220000   0.79977818  -0.10506082    2.8290279    1.1458141   -3.4792749    6.3083028     3.974842 
 4230000   0.79379989  -0.15787276    2.8064353    1.1372492    -3.503531    6.3099663    3.9436846 
 4240000   0.79763934  -0.10414153    2.8264653    1.1427499   -3.4832493    6.3097146    3.9692152 
 4250000   0.79994099  -0.13655246    2.8479472    1.1460474   -3.4623105    6.3102577    3.9939946 
 4260000   0.80202866 -0.087766297    2.8240222    1.1490383    -3.483753    6.3077752    3.9730605 
 4270000   0.80263897  -0.11960801    2.8420022    1.1499127    -3.470148    6.3121502    3.9919148 
 4280000   0.79934274  -0.13389038    2.8421275    1.1451903   -3.4690982    6.3112256    3.9873177 
 4290000   0.80539117  -0.22742507    2.8349489    1.1538557    -3.474028    6.3089769    3.9888046 
 4300000   0.80378788  -0.13335086    2.8379328    1.1515587   -3.4718007    6.3097335    3.9894915 
 4310000   0.80336242  -0.14847084    2.8262037    1.1509492   -3.4831495    6.3093532    3.9771528 
 4320000   0.80682016  -0.10076392    2.8136466    1.1559029   -3.4964859    6.3101325    3.9695495 
 4330000   0.78820353  -0.12808188    2.8342224    1.1292315   -3.4747395    6.3089619     3.963454 
 4340000   0.80189386  -0.11304537     2.820495    1.1488452   -3.4864668    6.3069618    3.9693402 
 4350000   0.79648207  -0.10014912    2.8228372    1.1410919   -3.4851235    6.3079607    3.9639291 
 4360000   0.79598475  -0.14625153    2.8374254    1.1403794    -3.473481    6.3109064    3.9778048 
 4370000   0.79804269   -0.2019204    2.8229992    1.1433278   -3.4835278     6.306527    3.9663269 
 4380000   0.79982333 -0.099960742    2.8367687    1.1458788   -3.4755116    6.3122803    3.9826475 
 4390000   0.79939525 -0.082212715    2.8216706    1.1452655   -3.4887063    6.3103768    3.9669361 
 4400000   0.79964088  -0.10047106    2.8254052    1.1456174   -3.4798396    6.3052448    3.9710226 
 4410000   0.79923147  -0.12443841    2.8392924    1.1450309   -3.4715743    6.3108668    3.9843233 
 4420000   0.80543286  -0.03315392    2.8289126    1.1539154   -3.4826062    6.3115188     3.982828 
 4430000   0.79722418  -0.15433788    2.8420412    1.1421551   -3.4697007    6.3117418    3.9841963 
 4440000   0.79691126  -0.19485822    2.8257332    1.1417068   -3.4812155    6.3069486      3.96744 
 4450000   0.80281685 -0.099305642    2.8274291    1.1501675   -3.4840515    6.3114806    3.9775967 
 4460000   0.80409808  -0.10606293    2.8293495    1.1520031   -3.4807927    6.3101422    3.9813526 
 4470000   0.79497951 -0.078902469    2.8289206    1.1389392    -3.481734    6.3106546    3.9678599 
 4480000   0.80491539  -0.16274599    2.8224771     1.153174   -3.4849749     6.307452    3.9756512 
 4490000   0.80314692 -0.079769476    2.8389499    1.1506404   -3.4691016    6.3080514    3.9895903 
 4500000   0.79961297  -0.15242412    2.8258174    1.1455774   -3.4851677    6.3109851    3.9713948 
 4510000   0.79602057  -0.17141376    2.8284279    1.1404307   -3.4816733    6.3101012    3.9688587 
 4520000   0.79717517  -0.12852367    2.8295301    1.1420849   -3.4819968    6.3115269     3.971615 
 4530000   0.79940231  -0.11550409    2.8209439    1.1452756   -3.4903235    6.3112674    3.9662195 
 4540000   0.80764214 -0.089533165    2.8289108    1.1570805    -3.480141    6.3090518    3.9859914 
 4550000   0.80079451  -0.14886532    2.8221075    1.1472702   -3.4853211    6.3074286    3.9693777 
 4560000   0.79990473 -0.097627677    2.8270389    1.1459954   -3.4838435    6.3108824    3.9730343 
 4570000   0.79901988   -0.1385782    2.8471683    1.1447277   -3.4634787     6.310647     3.991896 
 4580000   0.79907521  -0.19190725    2.8294424     1.144807   -3.4793847    6.3088271    3.9742495 
 4590000   0.80063507 -0.069891044    2.8249058    1.1470418   -3.4856383    6.3105441    3.9719476 
 4600000   0.80511339 -0.087792988    2.8160938    1.1534577   -3.4913366    6.3074305    3.9695515 
 4610000   0.80776021   -0.1238735    2.8386662    1.1572497   -3.4711979    6.3098641    3.9959159 
 4620000   0.80138941  -0.13211156    2.8350037    1.1481225   -3.4740148    6.3090185    3.9831262 
 4630000   0.79528023  -0.12013334    2.8306947    1.1393701   -3.4815413     6.312236    3.9700648 
 4640000    0.7978168  -0.13024833    2.8287891    1.1430041    -3.480144    6.3089331    3.9717932 
 4650000    0.7975233 -0.093362771    2.8445186    1.1425836   -3.4671727    6.3116914    3.9871023 
 4660000   0.79453751  -0.10153345    2.8338565     1.138306   -3.4735954    6.3074519    3.9721625 
 4670000   0.79894801   -0.1288966     2.830201    1.1446248   -3.4800569    6.3102579    3.9748258 
 4680000   0.79942707  -0.11287537    2.8151128    1.1453111   -3.4927442     6.307857    3.9604239 
 4690000   0.80156741  -0.13863602    2.8430467    1.1483775   -3.4684838    6.3115306    3.9914242 
 4700000   0.80646426  -0.11332681    2.8256126     1.155393   -3.4852613    6.3108739    3.9810057 
 4710000   0.79891219  -0.16493122    2.8222315    1.1445735   -3.4882134    6.3104449     3.966805 
 4720000   0.80234659 -0.097880442    2.8155403    1.1494938   -3.4923056    6.3078459    3.9650341 
 4730000   0.80166498  -0.12341076    2.8324419    1.1485173   -3.4787823    6.3112243    3.9809592 
 4740000   0.80006774  -0.14526762     2.810959     1.146229   -3.4949402    6.3058992    3.9571879 
 4750000   0.80198678  -0.10764153    2.8251705    1.1489783   -3.4862565     6.311427    3.9741488 
 4760000   0.80427023  -0.12184456    2.8237737    1.1522497    -3.484695    6.3084687    3.9760234 
 4770000   0.81166133  -0.16350556     2.819196    1.1628387   -3.4912292    6.3104252    3.9820347 
 4780000   0.80288597   -0.2092497    2.8396778    1.1502665   -3.4688084    6.3084862    3.9899443 
 4790000   0.79636427   -0.1170028    2.8323753    1.1409231    -3.477172    6.3095473    3.9732985 
 4800000   0.79394878  -0.14364657    2.8333165    1.1374626   -3.4744033    6.3077197    3.9707791 
 4810000   0.80460208  -0.16453769    2.8423497    1.1527252   -3.4707054     6.313055    3.9950748 
 4820000   0.80045446  -0.15374782    2.8432519     1.146783    -3.465784    6.3090359    3.9900349 
 4830000    0.7949423  -0.11413936    2.8296527    1.1388859   -3.4817187    6.3113713    3.9685386 
 4840000   0.79183803  -0.13778927    2.8354802    1.1344386   -3.4765852    6.3120654    3.9699188 
 4850000   0.79962228  -0.19403601    2.8319559    1.1455908   -3.4749063    6.3068623    3.9775467 
 4860000   0.80715952  -0.11389918    2.8217989    1.1563891   -3.4882729    6.3100718     3.978188 
 4870000   0.80377913  -0.11014685    2.8288406    1.1515461   -3.4806837    6.3095243    3.9803867 
 4880000   0.80111241  -0.18474382     2.819519    1.1477256   -3.4927764    6.3122955    3.9672447 
 4890000   0.80186218  -0.12210483    2.8267795    1.1487998   -3.4825249    6.3093044    3.9755793 
 4900000   0.80598016  -0.13366663    2.8241653    1.1546995   -3.4860408     6.310206    3.9788647 
 4910000   0.79914152 -0.075648917    2.8128576     1.144902   -3.4968779    6.3097355    3.9577596 
 4920000   0.79651191  -0.15583644    2.8190845    1.1411347   -3.4924807    6.3115652    3.9602192 
 4930000   0.80797672 -0.052425139    2.8137675    1.1575599   -3.4960146    6.3097821    3.9713274 
 4940000   0.79259103  -0.19397463    2.8428899    1.1355174   -3.4663198    6.3092097    3.9784072 
 4950000   0.80069389  -0.14187844    2.8229129     1.147126   -3.4850572    6.3079701    3.9700389 
 4960000   0.79945357  -0.14550955    2.8243876    1.1453491   -3.4844389    6.3088266    3.9697367 
 4970000    0.8062257 -0.094392769    2.8141682    1.1550513   -3.4945263    6.3086944    3.9692195 
 4980000   0.80743934  -0.11234181    2.8407957      1.15679   -3.4696695    6.3104652    3.9975857 
 4990000    0.7971145  -0.16940794    2.8245359     1.141998   -3.4866017    6.3111375    3.9665338 
 5000000   0.79621668  -0.16255736    2.8411237    1.1407117   -3.4684395    6.3095632    3.9818354 
 5010000   0.80169526  -0.14342282    2.8173855    1.1485607    -3.487077    6.3044625    3.9659461 
 5020000   0.80367886  -0.15767993    2.8313424    1.1514025   -3.4761028    6.3074452    3.9827449 
 5030000   0.80079999  -0.16041787    2.8387305     1.147278   -3.4711253    6.3098558    3.9860086 
 5040000   0.79455506  -0.15129463    2.8299951    1.1383311   -3.4777268    6.3077219    3.9683263 
 5050000   0.79793999 -0.071759079     2.831302    1.1431806   -3.4786567    6.3099587    3.9744826 
 5060000   0.79865794  -0.16299722    2.8311794    1.1442092   -3.4783899    6.3095692    3.9753886 
 5070000   0.80475989  -0.11452193    2.8469533    1.1529513   -3.4673978    6.3143511    3.9999046 
 5080000   0.80830983  -0.13454211    2.8334417    1.1580371   -3.4784045    6.3118462    3.9914788 
 5090000   0.79651492  -0.19460901    2.8322602     1.141139   -3.4785754    6.3108356    3.9733992 
 5100000   0.80122755  -0.11078781    2.8093167    1.1478906   -3.5003873     6.309704    3.9572073 
 5110000   0.80375374  -0.13724343     2.826473    1.1515098   -3.4852007    6.3116737    3.9779828 
 5120000   0.79756573  -0.13117647    2.8219305    1.1426444    -3.488501    6.3104316     3.964575 
 5130000    0.7974183  -0.20893651    2.8274217    1.1424332   -3.4804502    6.3078719    3.9698549 
 5140000   0.80461755  -0.16189789    2.8193459    1.1527473   -3.4892142    6.3085601    3.9720933 
 5150000   0.80482834  -0.11459308    2.8252023    1.1530493   -3.4838657     6.309068    3.9782516 
 5160000   0.80528826  -0.14367686    2.8368279    1.1537082   -3.4702534    6.3070813    3.9905362 
 5170000   0.80382018  -0.12589285    2.8254466     1.151605   -3.4821628    6.3076093    3.9770515 
 5180000   0.79972809  -0.16370363    2.8477261    1.1457424   -3.4621196    6.3098457    3.9934685 
 5190000   0.80497299  -0.13624585    2.8172514    1.1532566   -3.4907566    6.3080079    3.9705079 
 5200000   0.80656993  -0.16032563    2.8262849    1.1555444   -3.4833617    6.3096466    3.9818293 
 5210000   0.79716492  -0.09468514    2.8443261    1.1420702     -3.46548    6.3098061    3.9863963 
 5220000    0.7975269 -0.088259857    2.8225516    1.1425888   -3.4865288    6.3090804    3.9651404 
 5230000   0.79460333 -0.029114456    2.8324527    1.1384003   -3.4780987    6.3105514     3.970853 
 5240000   0.80149465 -0.082209266     2.823406    1.1482733   -3.4843821     6.307788    3.9716792 
 5250000   0.80065317  -0.25944689    2.8282921    1.1470677   -3.4801638    6.3084559    3.9753598 
 5260000   0.80585839  -0.11879091    2.8218607     1.154525   -3.4895479    6.3114086    3.9763857 
 5270000   0.79670667  -0.17291183    2.8261409    1.1414137   -3.4857153    6.3118562    3.9675546 
 5280000   0.79886113  -0.16818523    2.8342102    1.1445003   -3.4763541    6.3105643    3.9787105 
 5290000   0.80345211  -0.21512905    2.8218697    1.1510776   -3.4860257    6.3078955    3.9729474 
 5300000   0.79858945  -0.16696131    2.8265868    1.1441111   -3.4801798    6.3067667    3.9706979 
 5310000     0.802806  -0.13905792    2.8274246     1.150152   -3.4813081    6.3087327    3.9775766 
 5320000   0.80647608  -0.11625377    2.8309733      1.15541   -3.4768698    6.3078432    3.9863833 
 5330000   0.80926277  -0.16108041    2.8194695    1.1594024   -3.4894641    6.3089336    3.9788719 
 5340000   0.79992145  -0.12800972     2.826851    1.1460194   -3.4836833    6.3105343    3.9728704 
 5350000   0.79904716 -0.045790619    2.8401148    1.1447668   -3.4695336    6.3096485    3.9848817 
 5360000   0.79611988  -0.10810133    2.8127743     1.140573   -3.4976927     6.310467    3.9533473 
 5370000   0.80007198  -0.12333333    2.8438131    1.1462351   -3.4687561    6.3125692    3.9900481 
 5380000   0.80567664  -0.11094722    2.8479942    1.1542646   -3.4650155    6.3130097    4.0022589 
 5390000   0.80432205  -0.10961352     2.823459     1.152324   -3.4882348    6.3116938     3.975783 
 5400000   0.79961155  -0.16820198    2.8307397    1.1455754   -3.4813117    6.3120514    3.9763151 
 5410000    0.7970795   -0.1463607    2.8268046    1.1419478   -3.4799389    6.3067434    3.9687524 
 5420000   0.79710466  -0.22046327    2.8365418    1.1419839   -3.4703063    6.3068481    3.9785257 
 5430000   0.79485268 -0.071819497    2.8350253    1.1387575   -3.4742006    6.3092259    3.9737828 
 5440000   0.80392057  -0.12345637    2.8236034    1.1517488   -3.4831813    6.3067847    3.9753522 
 5450000    0.8023668  -0.18365302    2.8465225    1.1495228   -3.4634296    6.3099521    3.9960453 
 5460000    0.7989533  -0.14996505    2.8256579    1.1446324   -3.4838642    6.3095222    3.9702903 
 5470000   0.79860013  -0.14886637    2.8320552    1.1441264   -3.4752646    6.3073198    3.9761815 
 5480000   0.79741143  -0.10666897    2.8521157    1.1424234    -3.459561    6.3116767    3.9945391 
 5490000   0.79871929  -0.13732456    2.8063332    1.1442971   -3.5017486    6.3080818    3.9506303 
 5500000   0.79551453  -0.21299979    2.8420859    1.1397058   -3.4666526    6.3087385    3.9817917 
 5510000   0.80274565   -0.1511748    2.8322878    1.1500655   -3.4787043    6.3109921    3.9823533 
 5520000   0.80505922 -0.097402048    2.8283107    1.1533801   -3.4792222    6.3075329    3.9816908 
 5530000   0.80028843  -0.15527705    2.8183519    1.1465451   -3.4886936    6.3070456    3.9648971 
 5540000   0.79867737  -0.15621953    2.8319905     1.144237   -3.4762042    6.3081947    3.9762275 
 5550000   0.79964147  -0.10621976    2.8280739    1.1456183   -3.4814772    6.3095511    3.9736922 
 5560000    0.7965699   -0.2108501     2.830066    1.1412177   -3.4790248    6.3090909    3.9712838 
 5570000   0.80106067  -0.15345847    2.8373709    1.1476515   -3.4741615    6.3115325    3.9850225 
 5580000   0.79285497   -0.1198451    2.8296943    1.1358955   -3.4793589    6.3090532    3.9655898 
 5590000   0.80139648  -0.15322509    2.8463339    1.1481326    -3.460959    6.3072929    3.9944665 
 5600000    0.7919719  -0.17734648    2.8277853    1.1346304   -3.4795711    6.3073564    3.9624157 
 5610000   0.79435036  -0.20872763    2.8234164    1.1380379   -3.4897349    6.3131513    3.9614543 
 5620000   0.80136955  -0.16533573    2.8207427     1.148094   -3.4864378    6.3071805    3.9688367 
 5630000   0.79932784  -0.16635641    2.8253112    1.1451689   -3.4825049     6.307816    3.9704801 
 5640000   0.80474193  -0.15123132    2.8252235    1.1529255   -3.4857512    6.3109747     3.978149 
 5650000   0.80120722  -0.13739647     2.813199    1.1478615   -3.4963337    6.3095328    3.9610605 
 5660000   0.80120804  -0.15948819    2.8351217    1.1478626    -3.471718    6.3068396    3.9829843 
 5670000   0.80014012 -0.030986236    2.8299023    1.1463327    -3.479025    6.3089273     3.976235 
 5680000   0.79862051  -0.17039323    2.8204698    1.1441556   -3.4869545    6.3074243    3.9646254 
 5690000   0.80007198 -0.087856352    2.8295253     1.146235   -3.4811915    6.3107168    3.9757603 
 5700000   0.80836986 -0.038838297    2.8348268    1.1581231   -3.4799229    6.3147497    3.9929499 
 5710000   0.79971947  -0.16844674    2.8250912      1.14573   -3.4828633    6.3079546    3.9708212 
 5720000   0.79617935  -0.13016112    2.8391679    1.1406582   -3.4690123    6.3081802    3.9798261 
 5730000   0.80252477  -0.20353967    2.8320749    1.1497491   -3.4776262    6.3097011    3.9818239 
 5740000    0.8005698  -0.14170573    2.8254067    1.1469483   -3.4838924    6.3092991     3.972355 
 5750000   0.80254921  -0.14680522    2.8273009    1.1497841   -3.4827138    6.3100148     3.977085 
 5760000   0.79733229  -0.19830335    2.8139315      1.14231   -3.4974962    6.3114277    3.9562415 
 5770000   0.80253775  -0.18514517    2.8345372    1.1497677   -3.4763012    6.3108384    3.9843049 
 5780000   0.79887638 -0.056965626    2.8199986    1.1445222   -3.4916158    6.3116144    3.9645207 
 5790000   0.80258867  -0.06385128    2.8284618    1.1498406   -3.4819144    6.3103762    3.9783024 
 5800000   0.80263012  -0.11554353    2.8461194       1.1499   -3.4618244    6.3079438    3.9960194 
 5810000   0.79758231  -0.12535004    2.8432816    1.1426682   -3.4677825    6.3110641    3.9859498 
 5820000   0.80434158  -0.16473464    2.8317504    1.1523519   -3.4748989    6.3066493    3.9841023 
 5830000   0.79554779  -0.12672515    2.8382948    1.1397534   -3.4725474    6.3108422    3.9780482 
 5840000   0.79869086  -0.16875853    2.8300287    1.1442564   -3.4788429    6.3088717    3.9742851 
 5850000   0.80692719 -0.085024432    2.8160042    1.1560563   -3.4945145    6.3105187    3.9720604 
 5860000   0.79815565  -0.11289338    2.8261589    1.1434896   -3.4852555    6.3114145    3.9696485 
 5870000   0.79695795  -0.20755778    2.8359511    1.1417737   -3.4740955    6.3100466    3.9777248 
 5880000    0.8017484 -0.053076969    2.8170309    1.1486368   -3.4926925    6.3097234    3.9656677 
 5890000   0.80560034  -0.13233098    2.8343445    1.1541553    -3.475063    6.3094075    3.9884998 
 5900000   0.79619743  -0.12365888     2.828751    1.1406841   -3.4798231    6.3085742    3.9694352 
 5910000   0.79270995  -0.18826602    2.8316523    1.1356877   -3.4787174    6.3103698      3.96734 
 5920000   0.80540561  -0.13282794    2.8254276    1.1538764   -3.4831987    6.3086263     3.979304 
 5930000   0.79753003  -0.10713189    2.8311801    1.1425933    -3.477876    6.3090561    3.9737734 
 5940000   0.79925226  -0.17444619    2.8163521    1.1450607   -3.4930245    6.3093767    3.9614128 
 5950000   0.81516399  -0.13235202    2.8252291    1.1678568   -3.4819384    6.3071675    3.9930859 
 5960000   0.80053297  -0.16979197    2.8160603    1.1468955   -3.4912754    6.3073357    3.9629558 
 5970000   0.79849948  -0.12800043    2.8218165    1.1439822   -3.4840833    6.3058998    3.9657986 
 5980000   0.79457927  -0.15032837    2.8256667    1.1383658    -3.483163    6.3088297    3.9640325 
 5990000   0.80126473  -0.17866917    2.8402971    1.1479439   -3.4705773    6.3108744     3.988241 
 6000000   0.79896156  -0.20239543    2.8287482    1.1446442   -3.4829282    6.3116764    3.9733924 
Loop time of 125194 on 216 procs for 6000000 steps with 28425 atoms

Performance: 20703.822 tau/day, 47.926 timesteps/s
99.8% CPU use with 216 MPI tasks x 1 OpenMP threads

MPI task timing breakdown:
Section |  min time  |  avg time  |  max time  |%varavg| %total
---------------------------------------------------------------
Pair    | 1188.6     | 1619.2     | 2065.5     | 371.4 |  1.29
Bond    | 13.948     | 20.156     | 26.082     |  42.1 |  0.02
Kspace  | 1.165e+05  | 1.1698e+05 | 1.1741e+05 |  46.6 | 93.44
Neigh   | 840.81     | 872.01     | 908.38     |  49.7 |  0.70
Comm    | 1454.5     | 1687.5     | 1951.7     | 291.0 |  1.35
Output  | 2.8479     | 2.8964     | 2.9088     |   0.3 |  0.00
Modify  | 3323.7     | 3487.9     | 3642.6     | 131.5 |  2.79
Other   |            | 525.2      |            |       |  0.42

Nlocal:    131.597 ave 204 max 8 min
Histogram: 2 3 1 2 6 68 93 19 15 7
Nghost:    966.273 ave 1220 max 491 min
Histogram: 3 3 3 5 10 31 80 56 19 6
Neighs:    5068.21 ave 10301 max 67 min
Histogram: 2 4 8 35 100 27 12 13 9 6

Total # of neighbors = 1094734
Ave neighs/atom = 38.5131
Ave special neighs/atom = 0.612137
Neighbor list builds = 806060
Dangerous builds = 0
System init for write_restart ...
PPPM initialization ...
  using 12-bit tables for long-range coulomb (src/kspace.cpp:332)
  G vector (1/distance) = 1.26823
  grid = 135 135 135
  stencil order = 5
  estimated absolute RMS force accuracy = 0.000112309
  estimated relative force accuracy = 0.000112309
  using double precision FFTW3
  3d grid and FFT values/proc = 24389 12960
WARNING: Neighbor exclusions used with KSpace solver may give inconsistent Coulombic energies (src/neighbor.cpp:486)
Neighbor list info ...
  update every 1 steps, delay 0 steps, check yes
  max neighbors/atom: 2000, page size: 100000
  master list distance cutoff = 2.8
  ghost atom cutoff = 2.8
  binsize = 1.4, bins = 24 24 24
  7 neighbor lists, perpetual/occasional/extra = 2 5 0
  (1) pair lj/cut, perpetual
      attributes: half, newton on
      pair build: half/bin/newton
      stencil: half/bin/3d/newton
      bin: standard
  (2) pair coul/long, perpetual, skip from (1)
      attributes: half, newton on
      pair build: skip
      stencil: none
      bin: none
  (3) compute rdf, occasional, copy from (1)
      attributes: half, newton on
      pair build: copy
      stencil: none
      bin: none
  (4) compute rdf, occasional, copy from (1)
      attributes: half, newton on
      pair build: copy
      stencil: none
      bin: none
  (5) compute rdf, occasional, copy from (1)
      attributes: half, newton on
      pair build: copy
      stencil: none
      bin: none
  (6) compute rdf, occasional, copy from (1)
      attributes: half, newton on
      pair build: copy
      stencil: none
      bin: none
  (7) compute rdf, occasional, copy from (1)
      attributes: half, newton on
      pair build: copy
      stencil: none
      bin: none
PPPM initialization ...
  using 12-bit tables for long-range coulomb (src/kspace.cpp:332)
  G vector (1/distance) = 1.26823
  grid = 135 135 135
  stencil order = 5
  estimated absolute RMS force accuracy = 0.000112309
  estimated relative force accuracy = 0.000112309
  using double precision FFTW3
  3d grid and FFT values/proc = 24389 12960
WARNING: Neighbor exclusions used with KSpace solver may give inconsistent Coulombic energies (src/neighbor.cpp:486)
Neighbor list info ...
  update every 1 steps, delay 0 steps, check yes
  max neighbors/atom: 2000, page size: 100000
  master list distance cutoff = 2.8
  ghost atom cutoff = 2.8
  binsize = 1.4, bins = 24 24 24
  7 neighbor lists, perpetual/occasional/extra = 2 5 0
  (1) pair lj/cut, perpetual
      attributes: half, newton on
      pair build: half/bin/newton
      stencil: half/bin/3d/newton
      bin: standard
  (2) pair coul/long, perpetual, skip from (1)
      attributes: half, newton on
      pair build: skip
      stencil: none
      bin: none
  (3) compute rdf, occasional, copy from (1)
      attributes: half, newton on
      pair build: copy
      stencil: none
      bin: none
  (4) compute rdf, occasional, copy from (1)
      attributes: half, newton on
      pair build: copy
      stencil: none
      bin: none
  (5) compute rdf, occasional, copy from (1)
      attributes: half, newton on
      pair build: copy
      stencil: none
      bin: none
  (6) compute rdf, occasional, copy from (1)
      attributes: half, newton on
      pair build: copy
      stencil: none
      bin: none
  (7) compute rdf, occasional, copy from (1)
      attributes: half, newton on
      pair build: copy
      stencil: none
      bin: none
Setting up Verlet run ...
  Unit style    : lj
  Current step  : 6000000
  Time step     : 0.005
Per MPI rank memory allocation (min/avg/max) = 19.04 | 20.61 | 21.21 Mbytes
Step Lx Ly Lz Press Pxx Pyy Pzz PotEng Temp 
 6000000    32.698194    32.698194    32.698194   -0.2383663 -0.033469976  -0.61109724 -0.070531694    2.8287482   0.79896156 
 6000010    33.352158    32.376037    32.376037  -0.11545761    -1.242224   0.40035672   0.49549442    2.8479594   0.79985497 
 6000020    34.006122    32.063217    32.063217 -0.026017203   -1.4343516   0.61319947   0.74310054    2.8668135   0.81952564 
 6000030    34.660086    31.759294    31.759294  0.069188663    -1.603433   0.87927412   0.93172491    2.8946491   0.83533398 
 6000040     35.31405    31.463852    31.463852   0.22214912   -1.5063714    1.0881358     1.084683    2.9222396   0.85501139 
 6000050    35.968014    31.176505    31.176505   0.27748084   -1.4325048    1.2139657    1.0509816    2.9478409   0.87464344 
 6000060    36.621978    30.896889    30.896889   0.40638421   -1.3522557    1.2739572    1.2974512    2.9689072   0.89704174 
 6000070    37.275941    30.624665    30.624665   0.52053056    -1.157055    1.3484032    1.3702435    2.9958427   0.91311651 
 6000080    37.929905    30.359511    30.359511   0.58882791    -1.092844    1.4075415    1.4517863    3.0133027   0.93330857 
 6000090    38.583869    30.101128    30.101128   0.71012201  -0.96867611    1.6140382    1.4850039     3.030208   0.95336263 
 6000100    39.237833    29.849231    29.849231    0.7704557  -0.84812974    1.5897699    1.5697269    3.0549027   0.96611294 
Loop time of 2.65452 on 216 procs for 100 steps with 28425 atoms

Performance: 16274.121 tau/day, 37.672 timesteps/s
99.8% CPU use with 216 MPI tasks x 1 OpenMP threads

MPI task timing breakdown:
Section |  min time  |  avg time  |  max time  |%varavg| %total
---------------------------------------------------------------
Pair    | 0.00077987 | 0.025996   | 0.059523   |   5.6 |  0.98
Bond    | 4.077e-05  | 0.00025526 | 0.00060463 |   0.0 |  0.01
Kspace  | 1.8871     | 1.9187     | 1.9523     |   0.8 | 72.28
Neigh   | 0.052494   | 0.055234   | 0.05782    |   0.4 |  2.08
Comm    | 0.036021   | 0.051569   | 0.076287   |   3.9 |  1.94
Output  | 0.01803    | 0.024552   | 0.03143    |   1.8 |  0.92
Modify  | 0.30631    | 0.36822    | 0.43174    |   4.7 | 13.87
Other   |            | 0.21       |            |       |  7.91

Nlocal:    131.597 ave 199 max 9 min
Histogram: 2 1 3 2 4 44 112 24 13 11
Nghost:    972.69 ave 1225 max 507 min
Histogram: 4 2 3 5 12 30 82 52 19 7
Neighs:    5074.94 ave 10179 max 38 min
Histogram: 2 4 5 35 94 37 12 11 10 6

Total # of neighbors = 1096188
Ave neighs/atom = 38.5642
Ave special neighs/atom = 0.612137
Neighbor list builds = 49
Dangerous builds = 0
PPPM initialization ...
  using 12-bit tables for long-range coulomb (src/kspace.cpp:332)
  G vector (1/distance) = 1.26405
  grid = 150 125 125
  stencil order = 5
  estimated absolute RMS force accuracy = 0.00012077
  estimated relative force accuracy = 0.00012077
  using double precision FFTW3
  3d grid and FFT values/proc = 23328 11550
WARNING: Neighbor exclusions used with KSpace solver may give inconsistent Coulombic energies (src/neighbor.cpp:486)
Neighbor list info ...
  update every 1 steps, delay 0 steps, check yes
  max neighbors/atom: 2000, page size: 100000
  master list distance cutoff = 2.8
  ghost atom cutoff = 2.8
  binsize = 1.4, bins = 29 22 22
  7 neighbor lists, perpetual/occasional/extra = 2 5 0
  (1) pair lj/cut, perpetual
      attributes: half, newton on
      pair build: half/bin/newton
      stencil: half/bin/3d/newton
      bin: standard
  (2) pair coul/long, perpetual, skip from (1)
      attributes: half, newton on
      pair build: skip
      stencil: none
      bin: none
  (3) compute rdf, occasional, copy from (1)
      attributes: half, newton on
      pair build: copy
      stencil: none
      bin: none
  (4) compute rdf, occasional, copy from (1)
      attributes: half, newton on
      pair build: copy
      stencil: none
      bin: none
  (5) compute rdf, occasional, copy from (1)
      attributes: half, newton on
      pair build: copy
      stencil: none
      bin: none
  (6) compute rdf, occasional, copy from (1)
      attributes: half, newton on
      pair build: copy
      stencil: none
      bin: none
  (7) compute rdf, occasional, copy from (1)
      attributes: half, newton on
      pair build: copy
      stencil: none
      bin: none
Setting up Verlet run ...
  Unit style    : lj
  Current step  : 6000100
  Time step     : 0.005
Per MPI rank memory allocation (min/avg/max) = 18.95 | 20.52 | 21.06 Mbytes
Step Lx Ly Lz Press Pxx Pyy Pzz PotEng Temp 
 6000100    39.237833    29.849231    29.849231   0.68177841  -0.74843923    1.0944107    1.6993637    3.0551717   0.96611294 
 6010000    39.237833    29.849231    29.849231  -0.11135393  -0.13028936  -0.10454536 -0.099227077    2.8315554   0.79144951 
 6020000    39.237833    29.849231    29.849231  -0.15480668  -0.14467808  -0.10867777  -0.21106421    2.8100693    0.7976074 
 6030000    39.237833    29.849231    29.849231 -0.085926829  -0.11023477 -0.0059213338  -0.14162438    2.8166527   0.79434852 
 6040000    39.237833    29.849231    29.849231  -0.23017438  -0.21980191  -0.22500878  -0.24571246    2.8218666   0.80139171 
 6050000    39.237833    29.849231    29.849231  -0.11630675  -0.19282666 -0.050009876  -0.10608372    2.8165596   0.79514371 
 6060000    39.237833    29.849231    29.849231  -0.17746803  -0.15974452  -0.15673403  -0.21592555    2.8185414   0.80128359 
 6070000    39.237833    29.849231    29.849231  -0.20905874  -0.19830865  -0.24225352  -0.18661404    2.8326631   0.79869049 
 6080000    39.237833    29.849231    29.849231 -0.075687414  -0.12291602 -0.0060458275 -0.098100391    2.8216275   0.80573163 
 6090000    39.237833    29.849231    29.849231  -0.15990898  -0.11554091  -0.20187805  -0.16230798    2.8107512   0.79825905 
 6100000    39.237833    29.849231    29.849231  -0.13170671 -0.097761011  -0.14877185  -0.14858727    2.8290563     0.800421 
 6100100    39.237833    29.849231    29.849231 -0.088712627  -0.05526179  -0.13896084 -0.071915254    2.8236713    0.8024125 
Loop time of 1810.1 on 216 procs for 100000 steps with 28425 atoms

Performance: 23866.115 tau/day, 55.246 timesteps/s
99.7% CPU use with 216 MPI tasks x 1 OpenMP threads

MPI task timing breakdown:
Section |  min time  |  avg time  |  max time  |%varavg| %total
---------------------------------------------------------------
Pair    | 1.3101     | 26.227     | 56.014     | 165.9 |  1.45
Bond    | 0.060762   | 0.27952    | 0.59893    |  18.4 |  0.02
Kspace  | 1650.2     | 1679.2     | 1706.4     |  24.9 | 92.77
Neigh   | 13.347     | 14.038     | 14.739     |   7.0 |  0.78
Comm    | 27.725     | 36.503     | 54.172     |  91.5 |  2.02
Output  | 0.044039   | 0.044118   | 0.045307   |   0.0 |  0.00
Modify  | 37.321     | 42.495     | 48.044     |  36.8 |  2.35
Other   |            | 11.28      |            |       |  0.62

Nlocal:    131.597 ave 207 max 14 min
Histogram: 4 1 2 3 7 82 80 22 12 3
Nghost:    973.079 ave 1240 max 439 min
Histogram: 2 3 4 5 7 20 76 73 23 3
Neighs:    5069.75 ave 10779 max 174 min
Histogram: 5 4 7 59 75 32 11 16 3 4

Total # of neighbors = 1095067
Ave neighs/atom = 38.5248
Ave special neighs/atom = 0.612137
Neighbor list builds = 13421
Dangerous builds = 0
Total wall time: 40:58:15
