ITEM: TIMESTEP
0
ITEM: NUMBER OF ATOMS
475
ITEM: BOX BOUNDS pp pp pp
7.1354277009520928e-01 3.3076457229894366e+01
7.1354277009520928e-01 3.3076457229894366e+01
7.1354277009520928e-01 3.3076457229894366e+01
ITEM: ATOMS id mol type x y z 
27239 313 4 0.732261 4.60453 2.18711 
27126 307 4 0.763945 4.59265 2.11532 
27238 313 4 1.24613 4.95392 3.01521 
27128 307 4 1.4172 5.62039 3.70193 
27237 313 4 1.3831 5.67222 3.74813 
27127 307 4 1.28056 4.9221 2.94986 
27236 313 4 1.10646 6.56696 4.18948 
27129 307 4 1.13727 6.5004 4.17001 
27428 323 4 5.63713 9.7287 20.3001 
27374 320 4 5.64608 9.71823 20.3045 
27375 320 4 5.80369 10.5153 19.6629 
27427 323 4 5.79421 10.5216 19.6532 
27373 320 4 5.83609 9.23869 21.2022 
27429 323 4 5.82873 9.25439 21.2002 
27396 321 4 4.32053 14.9612 4.51392 
27161 309 4 4.35025 14.9841 4.59771 
27162 309 4 4.99126 14.5229 5.26725 
27397 321 4 4.95736 14.4985 5.18641 
27393 321 4 2.41507 16.8388 5.43287 
27170 309 4 2.44552 16.8582 5.52532 
27154 309 4 3.71839 15.6905 5.39628 
27171 309 4 2.88046 16.3323 4.74671 
27385 321 4 3.33749 16.0123 5.47782 
27394 321 4 2.85274 16.3124 4.65621 
27386 321 4 4.07139 15.3367 5.40667 
27160 309 4 3.57764 15.6464 4.40718 
27395 321 4 3.55019 15.6251 4.31985 
27159 309 4 3.15233 16.2964 5.95535 
27155 309 4 4.4252 15.1288 5.82632 
27163 309 4 5.32892 14.3864 6.23639 
27164 309 4 5.27276 14.6111 7.24545 
27399 321 4 5.22942 14.5856 7.16599 
27387 321 4 4.55614 15.0366 6.22828 
27398 321 4 5.29004 14.361 6.15713 
27381 321 4 3.82225 15.7122 6.29943 
27384 321 4 3.08835 16.3878 6.37058 
27158 309 4 3.29308 16.3405 6.94445 
27383 321 4 3.5731 16.0877 7.19219 
27157 309 4 3.99989 15.7788 7.37449 
27153 309 4 3.85914 15.7346 6.38539 
27382 321 4 4.307 15.4121 7.12104 
27156 309 4 4.56595 15.1729 6.81542 
27390 321 4 3.32396 16.4632 8.08494 
27167 309 4 3.36803 16.4852 8.17306 
27389 321 4 4.09431 15.7992 8.27901 
27166 309 4 4.14064 15.8229 8.36359 
27165 309 4 4.83781 15.1369 8.02406 
27388 321 4 4.79175 15.112 7.94265 
27169 309 4 2.38935 17.0829 6.53438 
27392 321 4 2.35445 17.0634 6.44173 
27168 309 4 2.72702 16.9464 7.50352 
27391 321 4 2.68713 16.9259 7.41245 
27056 303 4 10.7328 3.12176 18.1901 
27472 325 4 10.7271 3.124 18.1776 
27057 303 4 11.2165 3.49128 17.3526 
27473 325 4 11.2124 3.49471 17.3415 
27045 303 4 10.8488 4.09895 18.3683 
27462 325 4 10.8478 4.09986 18.3598 
27041 303 4 11.4147 5.65797 17.8689 
27040 303 4 11.2988 4.68079 17.6908 
27463 325 4 11.3004 4.68238 17.6846 
27458 325 4 11.4211 5.65825 17.8669 
27457 325 4 10.9685 5.07572 18.542 
27039 303 4 10.9647 5.07613 18.5465 
27055 303 4 10.3112 3.27592 19.1231 
27471 325 4 10.3065 3.27625 19.1113 
27054 303 4 10.0648 3.91243 19.9015 
27470 325 4 10.0632 3.91067 19.8924 
27459 325 4 11.0892 6.05158 18.7243 
27042 303 4 11.0807 6.05331 18.7246 
27053 303 4 10.0595 4.86076 20.3169 
27044 303 4 10.5148 4.49428 19.224 
27461 325 4 10.5159 4.4932 19.2172 
27043 303 4 10.6307 5.47146 19.4022 
27460 325 4 10.6365 5.46906 19.3995 
27468 325 4 10.3046 5.86239 20.2569 
27469 325 4 10.0625 4.85727 20.3118 
27052 303 4 10.2967 5.8668 20.2579 
27361 319 4 9.07369 1.50634 25.0772 
27410 322 4 9.07571 1.49623 25.0976 
27350 319 4 8.16609 1.53937 25.5742 
27411 322 4 8.17725 1.53279 25.6107 
27403 322 4 8.55806 2.45411 25.6896 
27344 319 4 8.54826 2.45833 25.6719 
27409 322 4 9.9375 1.9632 24.7642 
27360 319 4 9.94291 1.97464 24.7656 
27402 322 4 9.43819 2.66932 25.2664 
27349 319 4 9.43667 2.67596 25.2676 
27343 319 4 8.93043 3.37729 25.7695 
27400 322 4 8.93888 3.37544 25.7685 
27406 322 4 9.31969 4.29676 25.8474 
27347 319 4 9.3126 4.29625 25.8672 
27359 319 4 10.5408 2.81877 24.7231 
27408 322 4 10.5317 2.80858 24.6999 
27358 319 4 10.7073 3.81256 24.961 
27407 322 4 10.6991 3.80585 24.922 
27401 322 4 9.819 3.59064 25.3453 
27348 319 4 9.81884 3.59492 25.3652 
27357 319 4 10.3976 4.68972 25.4155 
27418 322 4 10.3949 4.68779 25.3709 
27412 322 4 7.48287 2.06309 26.1661 
27351 319 4 7.46329 2.06486 26.1236 
27352 319 4 7.15361 2.94202 26.5781 
27413 322 4 7.17862 2.94503 26.615 
27353 319 4 7.32002 3.93581 26.8159 
27414 322 4 7.34604 3.94229 26.8371 
27405 322 4 8.43956 4.08155 26.2707 
27404 322 4 8.05875 3.16023 26.1918 
27345 319 4 8.04202 3.15966 26.1738 
27346 319 4 8.42419 4.07862 26.2715 
27417 322 4 9.70051 5.21808 25.9263 
27356 319 4 9.69477 5.21521 25.9648 
27354 319 4 7.91795 4.77994 26.7734 
27415 322 4 7.94025 4.78767 26.7728 
27355 319 4 8.78717 5.24824 26.4619 
27416 322 4 8.80205 5.25464 26.4395 
27302 316 4 8.51816 9.84574 18.6565 
27301 316 4 8.94068 10.78 18.5133 
27466 325 4 11.2098 7.02744 18.9065 
27051 303 4 10.713 6.66098 19.7403 
27467 325 4 10.7245 6.65674 19.7426 
27050 303 4 11.1967 7.03049 18.9028 
27303 316 4 8.38377 9.00265 19.2421 
27292 316 4 8.98864 9.59435 19.7751 
27304 316 4 8.57353 8.47664 20.1135 
27426 323 4 6.25788 11.4207 19.4329 
27366 320 4 6.37355 10.7093 20.4614 
27420 323 4 6.59815 11.1693 20.339 
27376 320 4 6.26669 11.4163 19.4492 
27291 316 4 9.2671 10.483 19.4108 
27286 316 4 9.59352 10.186 20.3082 
27290 316 4 9.87197 11.0747 19.9438 
27372 320 4 6.32279 9.20518 22.1154 
27430 323 4 6.31767 9.22578 22.1124 
27294 316 4 9.64889 8.81695 21.7652 
27293 316 4 9.0366 8.40867 21.0369 
27287 316 4 9.31506 9.29736 20.6725 
27295 316 4 10.2463 9.59207 22.103 
27362 320 4 6.9434 10.9033 21.26 
27365 320 4 6.38974 10.071 21.2311 
27422 323 4 6.62804 10.0718 21.6787 
27364 320 4 6.95959 10.265 22.0297 
27363 320 4 7.51325 11.0973 22.0586 
27419 323 4 6.93841 10.9178 21.2451 
27423 323 4 7.27868 10.6663 22.1513 
27421 323 4 6.28777 10.3232 20.7726 
27289 316 4 10.1984 10.7777 20.8412 
27297 316 4 10.8033 11.3694 21.3742 
27296 316 4 10.6689 10.5263 21.9599 
27288 316 4 9.91993 9.88906 21.2056 
27371 320 4 6.97579 9.62668 22.7993 
27431 323 4 6.97294 9.65055 22.7921 
27432 323 4 7.61895 10.4149 23.0574 
27370 320 4 7.62011 10.3902 23.0709 
27369 320 4 8.0831 11.2913 22.8572 
27433 323 4 8.08262 11.3139 22.837 
27437 323 4 6.90389 12.185 19.6981 
27377 320 4 6.911 12.1799 19.7207 
27378 320 4 7.564 12.6014 20.4046 
27436 323 4 7.55916 12.6098 20.3779 
27367 320 4 6.9272 11.5416 20.4903 
27300 316 4 9.53814 11.5551 18.8512 
27299 316 4 10.1504 11.9634 19.5794 
27368 320 4 7.49705 11.7356 21.2889 
27425 323 4 7.24879 11.7638 20.8115 
27424 323 4 7.58906 11.5123 21.7176 
27380 320 4 8.24071 12.0883 22.2155 
27379 320 4 8.05071 12.5679 21.3178 
27435 323 4 8.0481 12.5812 21.29 
27434 323 4 8.2397 12.1069 22.1901 
27298 316 4 10.6135 11.8954 20.5029 
27474 325 4 11.6324 4.28905 16.8272 
27046 303 4 11.6328 4.28546 16.8351 
27475 325 4 11.8744 5.29418 16.7723 
27047 303 4 11.87 5.29149 16.776 
27335 318 4 14.6457 8.68547 1.31512 
27334 318 4 13.8917 9.32649 1.0109 
27336 318 4 15.6515 8.44592 1.36914 
27337 318 4 16.6396 8.67203 1.15847 
27327 318 4 15.1156 9.43463 0.848225 
27328 318 4 16.1126 9.42791 0.769899 
27049 303 4 11.6183 6.87634 17.9699 
27048 303 4 11.8647 6.23982 17.1914 
27465 325 4 11.6305 6.87519 17.9728 
27464 325 4 11.8737 6.24077 17.1917 
27333 318 4 13.5917 10.1972 32.9009 
27332 318 4 13.8258 11.0644 32.386 
27325 318 4 15.0586 10.9397 32.3557 
27326 318 4 14.5886 10.1905 32.8226 
27329 318 4 16.5825 10.1771 32.6659 
27330 318 4 16.0555 10.933 32.2773 
27324 318 4 15.5856 10.1838 32.7442 
27331 318 4 14.5315 11.6956 31.9671 
27342 318 4 15.5197 11.9217 31.7564 
27341 318 4 16.5254 11.6821 31.8104 
27146 308 4 15.0316 25.7713 27.3961 
27147 308 4 14.4051 26.1008 26.6406 
27148 308 4 13.8437 26.8544 26.2061 
27138 308 4 14.5265 26.8922 27.2397 
27145 308 4 15.5553 25.9543 28.2703 
27137 308 4 15.1016 26.819 28.0545 
27144 308 4 15.8358 26.6006 29.0289 
27143 308 4 15.7981 27.5372 29.4685 
27136 308 4 15.223 27.6104 28.6537 
27139 308 4 14.0729 27.7569 27.0239 
27149 308 4 13.4978 27.8302 26.209 
27150 308 4 13.4601 28.7668 26.6487 
27151 308 4 13.7406 29.4131 27.4073 
27140 308 4 14.1943 28.5484 27.623 
27141 308 4 14.8908 29.2666 29.037 
27135 308 4 14.7694 28.4751 28.4379 
27134 308 4 14.648 27.6837 27.8388 
27142 308 4 15.4522 28.513 29.4715 
27152 308 4 14.2643 29.5961 28.2814 
27024 302 4 21.7591 6.06002 30.7009 
27078 305 4 21.7646 6.06361 30.7292 
27023 302 4 22.2639 6.09487 29.8383 
27032 302 4 21.7616 4.9878 30.0793 
27095 305 4 21.7779 4.97732 30.1327 
27083 305 4 22.2841 6.07883 29.8748 
27033 302 4 21.3158 5.21042 30.9869 
27084 305 4 21.3167 5.22058 31.0271 
27085 305 4 21.0954 5.91562 31.7619 
27034 302 4 21.1076 5.88833 31.7412 
27338 318 4 17.3453 9.30322 0.739569 
27077 305 4 22.2125 6.90665 30.4313 
27026 302 4 22.1408 7.72436 30.9916 
27025 302 4 21.6976 6.87476 31.2775 
27020 302 4 22.2024 6.90962 30.415 
27080 305 4 22.1409 7.73446 30.9878 
27079 305 4 21.693 6.89143 31.2857 
27035 302 4 21.1927 6.8399 32.1401 
27086 305 4 21.1735 6.87621 32.1401 
27087 305 4 21.53 7.84495 32.0605 
27036 302 4 21.5484 7.81015 32.0768 
27088 305 4 22.0694 8.56228 31.5443 
27037 302 4 22.0793 8.5391 31.5682 
27339 318 4 17.5794 10.1704 32.5876 
27340 318 4 17.2794 11.0411 32.1147 
27075 304 4 18.5094 12.9549 4.30086 
27076 304 4 19.3594 12.4401 4.01045 
27065 304 4 20.3871 12.4012 3.89087 
27066 304 4 21.317 12.8486 3.97414 
27059 304 4 20.2047 13.3087 4.26941 
27067 304 4 21.9 13.6625 4.23796 
27074 304 4 18.0648 13.8077 4.68426 
27073 304 4 18.1447 14.7699 5.05794 
27064 304 4 19.2659 13.5855 4.4744 
27063 304 4 19.0835 14.493 4.85295 
27058 304 4 20.0224 14.2162 4.64795 
27060 304 4 20.9612 13.9393 4.44296 
27068 304 4 21.9799 14.6247 4.61164 
27061 304 4 20.7788 14.8468 4.8215 
27071 304 4 19.6576 16.0312 5.40504 
27062 304 4 19.84 15.1237 5.02649 
27072 304 4 18.7277 15.5837 5.32176 
27069 304 4 21.5353 15.4775 4.99505 
27070 304 4 20.6853 15.9923 5.28545 
27106 306 4 20.6944 19.9718 3.92712 
27099 306 4 21.0651 21.095 4.29724 
27108 306 4 21.5997 21.6514 3.32733 
27107 306 4 21.177 20.7079 3.38198 
27104 306 4 20.048 19.8026 5.81229 
27105 306 4 20.2811 19.6405 4.81667 
27100 306 4 21.4012 22.0159 4.49516 
27096 306 4 20.9533 21.4822 5.2125 
27097 306 4 20.5054 20.9484 5.92985 
27098 306 4 20.6172 20.5613 5.01459 
27103 306 4 20.0574 20.4147 6.64719 
27114 306 4 20.3069 21.3129 7.09768 
27102 306 4 20.8415 21.8693 6.12776 
27113 306 4 20.7296 22.2564 7.04303 
27313 317 4 20.2027 23.1058 2.36218 
27307 317 4 21.2649 23.5978 1.95519 
27314 317 4 20.9969 22.6364 1.89222 
27308 317 4 22.1489 23.8952 1.59429 
27315 317 4 21.9347 22.6823 1.45601 
27306 317 4 20.6489 24.2619 2.37905 
27305 317 4 21.5329 24.5592 2.01816 
27311 317 4 20.9169 25.2233 2.44202 
27310 317 4 21.8009 25.5206 2.08112 
27320 317 4 22.0689 26.4821 2.14409 
27312 317 4 19.7649 23.9646 2.73995 
27109 306 4 21.8492 22.5496 3.77781 
27323 317 4 19.8009 24.9827 2.92432 
27322 317 4 20.3009 25.8874 2.86588 
27321 317 4 21.131 26.4362 2.5803 
27110 306 4 21.8586 23.1617 4.61272 
27111 306 4 21.6255 23.3239 5.60834 
27101 306 4 21.2894 22.403 5.41042 
27112 306 4 21.2122 22.9925 6.49789 
27250 314 4 27.4909 2.01879 2.90384 
27180 310 4 26.7603 1.16071 3.31089 
27257 314 4 26.6721 2.20904 3.44558 
27258 314 4 26.6686 1.18319 3.30593 
27181 310 4 26.7618 2.18625 3.45283 
27174 310 4 27.5714 2.00087 2.89586 
27182 310 4 27.1972 3.11245 3.29629 
27256 314 4 27.1144 3.13294 3.29491 
27284 315 4 26.7766 1.23291 28.1418 
27224 312 4 26.7913 1.25156 28.1571 
27285 315 4 27.1927 2.17983 28.0968 
27223 312 4 27.2162 2.1929 28.0849 
27093 305 4 22.895 5.96834 28.8022 
27030 302 4 22.8563 6.00908 28.7531 
27094 305 4 22.3556 5.25102 29.3184 
27031 302 4 22.3254 5.28013 29.2617 
27092 305 4 23.2515 6.93708 28.7225 
27029 302 4 23.212 6.97933 28.6898 
27091 305 4 23.3295 7.89767 29.1008 
27028 302 4 23.2971 7.9309 29.0888 
27022 302 4 22.7072 6.94448 29.5524 
27082 305 4 22.732 6.92187 29.5769 
27021 302 4 22.6456 7.75922 30.129 
27081 305 4 22.6604 7.74968 30.1334 
27038 302 4 22.6432 8.83143 30.7506 
27027 302 4 23.0889 8.60882 29.8431 
27090 305 4 23.1083 8.59271 29.8355 
27089 305 4 22.6471 8.83598 30.7299 
27013 301 4 24.4411 14.4616 12.7178 
27199 311 4 24.4595 14.489 12.6984 
27200 311 4 25.0991 15.1555 12.2307 
27012 301 4 25.0768 15.1271 12.2434 
27194 311 4 25.0586 16.5808 13.2141 
27004 301 4 24.7394 15.6189 13.0461 
27193 311 4 24.7559 15.6451 13.0323 
27003 301 4 25.0429 16.5553 13.2229 
27201 311 4 25.5548 16.0843 12.1927 
27011 301 4 25.5316 16.0561 12.1991 
27015 301 4 23.3116 14.5163 14.3675 
27209 311 4 23.3176 14.5394 14.3396 
27198 311 4 23.8075 14.2635 13.4703 
27014 301 4 23.7951 14.2381 13.4953 
27197 311 4 23.7669 15.6888 14.4537 
27006 301 4 23.7612 15.6663 14.4748 
27007 301 4 24.0647 16.6026 14.6515 
27196 311 4 24.0696 16.6245 14.6355 
27208 311 4 23.1211 15.2429 15.0734 
27005 301 4 24.0986 15.1744 13.6721 
27192 311 4 24.1101 15.1992 13.6521 
27001 301 4 24.4021 16.1108 13.8488 
27191 311 4 24.4128 16.1348 13.8339 
27016 301 4 23.1203 15.2218 15.1007 
27017 301 4 23.2725 16.1655 15.4985 
27207 311 4 23.2708 16.1853 15.4751 
27202 311 4 25.7044 17.0267 12.5944 
27010 301 4 25.6838 16.9997 12.5969 
27203 311 4 25.508 17.7301 13.3282 
27009 301 4 25.4925 17.7052 13.3301 
27195 311 4 24.7154 17.0704 14.0157 
27008 301 4 25.009 17.9834 14.2024 
27204 311 4 25.0181 18.0061 14.1975 
27019 301 4 24.363 17.7599 14.9798 
27205 311 4 24.366 17.7806 14.9694 
27002 301 4 24.7055 17.0471 14.0256 
27206 311 4 23.7264 17.1141 15.4371 
27018 301 4 23.7273 17.0945 15.4543 
27316 317 4 22.7648 23.2311 1.17043 
27317 317 4 23.2649 24.1358 1.11199 
27318 317 4 23.3008 25.1539 1.29636 
27309 317 4 22.4169 24.8566 1.65726 
27319 317 4 22.8631 26.0127 1.67413 
27179 310 4 27.1931 32.6735 2.90851 
27259 314 4 27.1048 32.6932 2.91338 
27226 312 4 27.4807 31.7399 28.0529 
27225 312 4 26.8881 32.5838 28.1454 
27283 315 4 26.8845 32.5666 28.1106 
27282 315 4 27.4875 31.7309 28.0117 
27172 310 4 28.3811 1.81548 2.33889 
27248 314 4 28.3097 1.82854 2.3621 
27252 314 4 28.526 0.889145 2.09601 
27178 310 4 28.5967 0.877662 2.06674 
27177 310 4 29.1907 1.6301 1.78193 
27253 314 4 29.1284 1.63828 1.82037 
27187 310 4 30.0003 1.44471 1.22496 
27263 314 4 29.9472 1.44803 1.27863 
27264 314 4 29.9507 2.47388 1.41828 
27186 310 4 30.0018 2.47025 1.36689 
27266 314 4 28.7554 3.77828 2.35108 
27254 314 4 28.9121 2.57767 2.08646 
27176 310 4 28.975 2.56791 2.05408 
27184 310 4 28.8179 3.76722 2.32428 
27185 310 4 29.569 3.32035 1.76927 
27265 314 4 29.5145 3.32681 1.81082 
27123 307 4 30.9507 6.0968 1.11415 
27242 313 4 30.9355 6.09445 1.13051 
27241 313 4 31.5516 5.26301 1.09898 
27124 307 4 31.5722 5.27086 1.05547 
27125 307 4 32.3687 4.7203 1.42192 
27240 313 4 32.3421 4.71766 1.48572 
27232 313 4 32.2723 5.52419 2.07286 
27118 307 4 32.6761 5.44562 2.3787 
27117 307 4 31.8988 5.78473 1.84878 
27251 314 4 27.7073 1.0794 2.63774 
27173 310 4 27.7871 1.06305 2.6237 
27175 310 4 28.1654 2.7533 2.61105 
27249 314 4 28.0933 2.76793 2.6282 
27183 310 4 27.9497 3.69112 2.88321 
27255 314 4 27.8769 3.70732 2.89429 
27231 313 4 32.9057 5.64231 2.8376 
27119 307 4 33.0028 5.95949 3.172 
27219 312 4 30.5886 1.61521 27.5427 
27277 315 4 30.5803 1.64796 27.6046 
27220 312 4 29.996 2.45912 27.6351 
27214 312 4 27.9773 1.55547 27.9645 
27267 315 4 28.7324 0.92583 27.8576 
27268 315 4 28.3769 1.85829 27.9227 
27210 312 4 28.7384 0.918027 27.844 
27213 312 4 28.9024 1.90406 27.8138 
27273 315 4 27.7545 1.07937 27.9997 
27269 315 4 29.3548 1.70475 27.7806 
27270 315 4 29.7103 0.772291 27.7156 
27212 312 4 29.6635 1.26662 27.6933 
27276 315 4 29.9773 2.48367 27.7036 
27222 312 4 28.049 2.79265 27.9482 
27274 315 4 28.0214 2.79075 27.9877 
27221 312 4 29.0665 2.89009 27.7836 
27275 315 4 29.0407 2.90197 27.8438 
27122 307 4 30.6707 6.97681 1.58223 
27243 313 4 30.6588 6.98919 1.57186 
27133 307 4 30.8074 7.67509 2.3343 
27244 313 4 30.7958 7.70749 2.30478 
27233 313 4 31.5689 6.21258 1.89525 
27116 307 4 31.4481 6.6377 2.11216 
27234 313 4 31.4991 7.0191 2.48239 
27115 307 4 32.2254 6.2986 2.64208 
27229 313 4 32.2024 6.33071 2.66 
27120 307 4 32.5521 6.81247 3.43538 
27235 313 4 32.1326 7.13722 3.24713 
27121 307 4 31.7747 7.15157 2.90546 
27230 313 4 32.8359 6.44883 3.42474 
27247 313 4 32.8533 7.3984 4.22101 
27130 307 4 32.8787 7.32634 4.22869 
27131 307 4 32.0821 7.87689 3.86223 
27246 313 4 32.0627 7.94375 3.83427 
27245 313 4 31.3097 8.05688 3.13288 
27132 307 4 31.324 8.00455 3.16884 
27450 324 4 28.8424 18.4559 0.979206 
27442 324 4 30.0383 18.4561 1.3045 
27443 324 4 31.0182 18.3819 1.48977 
27453 324 4 31.5819 17.7522 0.955131 
27454 324 4 32.237 18.1988 1.62099 
27441 324 4 29.4746 19.0858 1.83914 
27449 324 4 28.4947 19.16 1.65388 
27448 324 4 28.6722 19.8244 2.42783 
27438 324 4 30.4546 19.0116 2.02441 
27444 324 4 31.4345 18.9374 2.20968 
27455 324 4 32.4144 18.8632 2.39494 
27447 324 4 29.3272 20.271 3.09369 
27440 324 4 29.8909 19.6413 2.55905 
27439 324 4 30.8708 19.5671 2.74432 
27446 324 4 30.2843 20.3801 3.47304 
27445 324 4 31.2871 20.1225 3.46422 
27456 324 4 32.0667 19.5673 3.06962 
27451 324 4 29.6221 17.9006 32.9475 
27452 324 4 30.6248 17.6431 32.9387 
27260 314 4 27.8639 32.2417 2.37312 
27190 310 4 27.9442 32.2267 2.3535 
27261 314 4 28.7424 32.3127 1.82991 
27189 310 4 28.8124 32.3028 1.79458 
27262 314 4 29.505 32.887 1.4293 
27188 310 4 29.5649 32.8814 1.3815 
27278 315 4 30.6882 32.9817 27.5735 
27217 312 4 30.2605 32.0061 27.6031 
27279 315 4 30.2721 32.0347 27.6185 
27218 312 4 30.6854 32.9474 27.5309 
27280 315 4 29.4434 31.4238 27.7275 
27215 312 4 27.8132 32.9323 27.9947 
27271 315 4 29.0879 32.3563 27.7926 
27227 312 4 28.4103 31.3089 27.9045 
27281 315 4 28.4241 31.3126 27.8715 
27272 315 4 28.11 32.5098 27.9347 
27216 312 4 28.5743 32.2949 27.8742 
27228 312 4 29.4278 31.4063 27.7398 
27211 312 4 29.4995 32.6435 27.7236 
ITEM: TIMESTEP
50000
ITEM: NUMBER OF ATOMS
475
ITEM: BOX BOUNDS pp pp pp
7.1354277009520928e-01 3.3076457229894366e+01
7.1354277009520928e-01 3.3076457229894366e+01
7.1354277009520928e-01 3.3076457229894366e+01
ITEM: ATOMS id mol type x y z 
27412 322 4 5.6048 1.21541 24.8652 
27351 319 4 5.59719 1.21605 24.883 
27353 319 4 5.87237 2.76736 26.1151 
27413 322 4 5.4831 1.97211 25.5612 
27352 319 4 5.47579 1.98342 25.5673 
27414 322 4 5.87998 2.74585 26.1231 
27375 320 4 6.06381 10.7993 18.9589 
27429 323 4 5.73004 9.35802 20.4414 
27373 320 4 5.7584 9.41317 20.3681 
27372 320 4 5.83929 9.38799 21.3999 
27430 323 4 5.81055 9.3511 21.4736 
27374 320 4 5.84059 9.92975 19.4746 
27428 323 4 5.82129 9.85593 19.5383 
27365 320 4 6.06269 10.3301 20.6263 
27427 323 4 6.05985 10.7114 19.0062 
27422 323 4 6.0908 10.2707 21.1983 
27421 323 4 6.09618 10.5232 20.2306 
27371 320 4 6.06156 9.86095 22.2937 
27431 323 4 6.04125 9.83701 22.3582 
27160 309 4 2.60405 14.9002 2.1546 
27395 321 4 2.55665 14.8983 2.18417 
27396 321 4 3.25758 14.1473 2.31326 
27161 309 4 3.31662 14.1652 2.3091 
27394 321 4 1.9686 15.6534 2.57896 
27171 309 4 1.98394 15.6404 2.52796 
27389 321 4 3.39924 14.9296 6.09446 
27162 309 4 3.93072 13.6323 2.95006 
27397 321 4 3.88358 13.6018 2.93164 
27155 309 4 3.43993 14.276 3.53733 
27386 321 4 3.11776 14.5306 3.22629 
27154 309 4 2.77659 14.9099 3.1396 
27381 321 4 2.97795 14.9139 4.13932 
27387 321 4 3.62243 14.1609 4.00647 
27153 309 4 2.94913 14.9197 4.12459 
27398 321 4 4.26692 13.4078 3.87361 
27163 309 4 4.28181 13.4444 3.90574 
27392 321 4 1.68897 16.42 4.40502 
27393 321 4 1.65101 16.2104 3.39185 
27170 309 4 1.62245 16.1875 3.32913 
27169 309 4 1.61645 16.3949 4.34345 
27384 321 4 2.33346 15.667 4.27217 
27385 321 4 2.47328 15.2837 3.35914 
27159 309 4 2.28579 15.5536 3.72686 
27156 309 4 3.61247 14.2857 4.52232 
27382 321 4 3.48262 14.5442 4.91949 
27157 309 4 3.12167 14.9294 5.10959 
27388 321 4 3.98729 14.1744 5.69967 
27165 309 4 3.91432 14.1989 5.72123 
27399 321 4 4.30488 13.6174 4.88678 
27164 309 4 4.27581 13.6518 4.92005 
27168 309 4 1.96753 16.207 5.29912 
27391 321 4 2.07231 16.226 5.34699 
27383 321 4 2.83813 15.2972 5.05234 
27390 321 4 2.69831 15.6805 5.96537 
27167 309 4 2.58164 15.6742 5.94008 
27158 309 4 2.45833 15.5633 4.71186 
27166 309 4 3.29421 14.9391 6.09458 
27057 303 4 9.83566 3.35394 18.2982 
27473 325 4 9.87484 3.31526 18.2772 
27046 303 4 10.2807 4.01583 17.6381 
27474 325 4 10.3045 3.97378 17.6037 
27040 303 4 9.84184 4.59296 18.3269 
27463 325 4 9.87355 4.5545 18.2944 
27041 303 4 9.90599 5.58866 18.2594 
27458 325 4 9.93016 5.54992 18.2168 
27047 303 4 10.4906 4.987 17.3471 
27464 325 4 10.4177 5.96461 17.4484 
27475 325 4 10.5031 4.94351 17.3003 
27048 303 4 10.409 6.00722 17.5032 
27056 303 4 9.27467 3.17869 19.1505 
27472 325 4 9.32942 3.14439 19.1405 
27045 303 4 9.33882 4.17439 19.0831 
27462 325 4 9.38603 4.13981 19.0628 
27055 303 4 8.74805 3.53703 19.9667 
27471 325 4 8.81434 3.50697 19.9621 
27039 303 4 9.40297 5.17009 19.0156 
27457 325 4 9.44265 5.13522 18.9852 
27044 303 4 8.89995 4.75152 19.7719 
27461 325 4 8.95513 4.72053 19.7536 
27043 303 4 8.9641 5.74722 19.7044 
27460 325 4 9.01175 5.71594 19.676 
27470 325 4 8.46762 4.30583 20.522 
27054 303 4 8.39692 4.33295 20.5281 
27053 303 4 8.31536 5.35318 20.6841 
27469 325 4 8.38215 5.32693 20.6701 
27360 319 4 8.1371 0.73271 23.7359 
27408 322 4 8.95689 1.3256 23.9978 
27359 319 4 8.94537 1.32317 24.0003 
27403 322 4 6.81545 1.35712 24.641 
27404 322 4 6.45077 2.00391 25.3108 
27345 319 4 6.44233 2.01434 25.3125 
27343 319 4 7.40887 2.04527 25.0577 
27400 322 4 7.41844 2.03572 25.0605 
27349 319 4 7.77298 1.38899 24.3968 
27402 322 4 7.78311 1.38893 24.3906 
27344 319 4 6.80644 1.35806 24.6516 
27407 322 4 9.35377 2.09934 24.5597 
27358 319 4 9.34195 2.10712 24.5481 
27401 322 4 8.3861 2.06753 24.8101 
27348 319 4 8.37541 2.07619 24.8029 
27406 322 4 8.02143 2.71432 25.48 
27347 319 4 8.0113 2.73247 25.4638 
27418 322 4 9.23207 2.85603 25.2557 
27357 319 4 9.22055 2.87449 25.2324 
27409 322 4 8.14779 0.742132 23.7207 
27346 319 4 7.04476 2.70155 25.7186 
27405 322 4 7.05376 2.68252 25.7303 
27354 319 4 6.68064 3.35782 26.3795 
27415 322 4 6.68908 3.32931 26.4002 
27417 322 4 8.62442 3.39293 25.8995 
27356 319 4 8.61372 3.41967 25.8699 
27355 319 4 7.68405 3.59659 26.2898 
27416 322 4 7.69362 3.56616 26.3184 
27466 325 4 9.55588 7.12605 18.83 
27465 325 4 10.071 6.76348 18.0083 
27049 303 4 10.0579 6.80314 18.0646 
27459 325 4 9.49926 6.13064 18.9076 
27420 323 4 6.37643 11.4428 19.9553 
27286 316 4 9.03372 10.4766 20.5255 
27289 316 4 9.30585 11.2731 21.0656 
27468 325 4 8.58085 6.29666 20.3668 
27050 303 4 9.53127 7.16149 18.8808 
27467 325 4 9.01046 6.95519 19.6932 
27051 303 4 8.97028 6.98624 19.7331 
27052 303 4 8.52522 6.32435 20.3932 
27303 316 4 8.48944 8.88374 19.4453 
27292 316 4 8.76158 9.68018 19.9854 
27302 316 4 8.63549 9.63967 18.7531 
27366 320 4 6.21539 11.0232 19.9217 
27364 320 4 6.21426 10.554 21.5891 
27290 316 4 9.23312 11.3447 20.0707 
27301 316 4 8.88825 10.6199 18.5358 
27291 316 4 8.96098 10.5482 19.5306 
27042 303 4 9.46712 6.16579 18.9482 
27304 316 4 8.48922 8.55461 20.4269 
27293 316 4 8.6349 8.74049 21.4349 
27287 316 4 8.83431 9.60856 20.9802 
27362 320 4 6.36697 11.2471 20.8845 
27363 320 4 6.51854 11.471 21.8473 
27423 323 4 6.36569 10.938 21.8906 
27419 323 4 6.37106 11.1904 20.9229 
27288 316 4 9.10645 10.405 21.5203 
27294 316 4 8.88745 9.39156 22.1993 
27432 323 4 6.36031 10.6856 22.8582 
27370 320 4 6.36567 10.7053 22.8099 
27295 316 4 9.17918 10.3334 22.5151 
27296 316 4 9.43194 11.3136 22.2978 
27300 316 4 9.17999 11.5617 18.8517 
27376 320 4 6.36827 11.7889 18.9592 
27377 320 4 6.67237 12.6332 19.4754 
27437 323 4 6.70086 12.5438 19.4877 
27367 320 4 6.51967 11.9402 20.18 
27426 323 4 6.3818 11.6952 18.9877 
27378 320 4 6.89465 13.1062 20.3692 
27436 323 4 6.93156 13.0297 20.3723 
27299 316 4 9.43253 12.2128 19.616 
27425 323 4 6.65131 12.11 20.6476 
27368 320 4 6.67125 12.164 21.1428 
27424 323 4 6.64594 11.8576 21.6153 
27379 320 4 6.97553 13.081 21.401 
27435 323 4 7.01207 13.0227 21.4045 
27297 316 4 9.57799 12.0695 21.6056 
27298 316 4 9.57821 12.3986 20.624 
27380 320 4 6.89335 12.5644 22.2945 
27434 323 4 6.92082 12.5248 22.3076 
27433 323 4 6.68226 11.6694 22.8397 
27369 320 4 6.67012 11.6949 22.8101 
27148 308 4 10.814 26.999 25.9927 
27146 308 4 11.4361 25.4081 27.0329 
27147 308 4 10.9335 26.0544 26.3992 
27149 308 4 11.1094 27.9888 25.9221 
27361 319 4 7.13369 32.8569 23.8257 
27410 322 4 7.14325 32.8682 23.8025 
27350 319 4 6.20402 33.0338 24.2455 
27411 322 4 6.21246 33.0414 24.2214 
27334 318 4 13.9546 6.88354 1.6406 
27335 318 4 14.744 6.34394 1.24371 
27327 318 4 14.8888 7.28261 0.930586 
27333 318 4 13.4543 7.78159 1.76335 
27332 318 4 13.3771 8.79744 1.57906 
27326 318 4 14.2439 8.00143 1.19041 
27331 318 4 13.7437 9.65891 1.13711 
27325 318 4 14.3886 8.94009 0.87729 
27339 318 4 16.6127 8.66096 31.8345 
27341 318 4 15.323 10.0986 32.3541 
27336 318 4 15.611 6.30737 33.0419 
27337 318 4 16.3233 6.78363 32.4607 
27328 318 4 15.6784 7.50245 32.7206 
27329 318 4 15.8231 8.44111 32.4074 
27340 318 4 16.1124 9.559 31.9572 
27330 318 4 15.1782 9.15994 32.6673 
27324 318 4 15.0335 8.22127 32.9804 
27342 318 4 14.456 10.1352 32.9188 
27338 318 4 16.6899 7.6451 32.0188 
27137 308 4 12.275 26.2003 27.4853 
27138 308 4 11.6483 26.611 26.823 
27134 308 4 12.363 27.1675 27.2467 
27139 308 4 11.7362 27.5781 26.5844 
27144 308 4 12.9851 25.5765 28.2869 
27143 308 4 13.6165 26.3462 28.5713 
27136 308 4 12.9897 26.7569 27.909 
27142 308 4 13.912 27.336 28.5007 
27145 308 4 12.1871 25.2331 27.7238 
27135 308 4 13.0777 27.724 27.6704 
27140 308 4 12.4509 28.1347 27.0081 
27150 308 4 11.7408 28.7585 26.2065 
27151 308 4 12.5388 29.1019 26.7696 
27152 308 4 13.2898 28.9269 27.4605 
27141 308 4 13.7924 28.2806 28.0941 
27094 305 4 21.8807 5.5462 27.5087 
27031 302 4 21.8544 5.52926 27.487 
27084 305 4 20.3278 5.51405 28.7688 
27033 302 4 20.318 5.51863 28.7675 
27032 302 4 21.0478 5.26318 28.079 
27095 305 4 21.0699 5.26894 28.0897 
27066 304 4 21.9544 9.42522 3.6738 
27063 304 4 19.8446 11.3111 4.34956 
27076 304 4 20.0192 9.10059 4.06074 
27065 304 4 21.0233 9.00015 3.82948 
27075 304 4 19.2111 9.69964 4.3056 
27064 304 4 19.9809 10.3305 4.20855 
27074 304 4 18.8155 10.6368 4.49845 
27060 304 4 21.6569 10.6117 3.87345 
27059 304 4 20.887 9.98077 3.9705 
27058 304 4 20.7507 10.9614 4.11151 
27020 302 4 21.3344 7.20957 28.4391 
27077 305 4 21.3264 7.21847 28.4556 
27083 305 4 21.6035 6.38233 27.9821 
27023 302 4 21.5944 6.36941 27.9631 
27078 305 4 20.8271 6.36626 28.6122 
27024 302 4 20.8262 6.3641 28.6033 
27079 305 4 20.55 7.20239 29.0857 
27025 302 4 20.5662 7.20426 29.0794 
27022 302 4 22.1026 7.21489 27.7989 
27082 305 4 22.1028 7.23454 27.8255 
27034 302 4 19.8605 6.22717 29.368 
27026 302 4 21.0745 8.04973 28.9152 
27081 305 4 21.8257 8.07067 28.2989 
27021 302 4 21.8427 8.05504 28.275 
27080 305 4 21.0493 8.0546 28.929 
27089 305 4 21.583 9.168 28.8214 
27038 302 4 21.6211 9.15597 28.7993 
27035 302 4 19.798 7.19894 29.7196 
27086 305 4 19.7736 7.18632 29.7157 
27036 302 4 20.1472 8.17356 29.7281 
27087 305 4 20.1099 8.16539 29.7298 
27037 302 4 20.8145 8.88989 29.3913 
27088 305 4 20.7722 8.89074 29.4025 
27085 305 4 19.8534 6.21586 29.364 
27072 304 4 19.547 12.4976 4.54922 
27073 304 4 18.9385 11.6609 4.58762 
27062 304 4 20.6144 11.942 4.25252 
27070 304 4 21.4823 12.8222 4.16227 
27071 304 4 20.4781 12.9226 4.39353 
27061 304 4 21.5206 11.5923 4.01446 
27101 306 4 19.3245 20.9941 4.55446 
27314 317 4 20.2537 21.7033 1.09491 
27108 306 4 18.3786 19.1229 3.77713 
27109 306 4 18.7001 19.9812 3.2957 
27100 306 4 18.8998 20.1368 4.26316 
27110 306 4 19.1286 20.923 3.33273 
27111 306 4 19.5494 21.6957 3.8783 
27112 306 4 19.8496 22.0925 4.78622 
27106 306 4 18.3495 18.4924 5.67501 
27313 317 4 19.5946 22.184 1.73244 
27107 306 4 18.2502 18.5779 4.64802 
27113 306 4 19.9488 22.007 5.81321 
27099 306 4 18.6749 19.4352 4.93931 
27098 306 4 18.8746 19.5908 5.90677 
27096 306 4 19.0995 20.2925 5.23061 
27102 306 4 19.5242 21.1497 5.52191 
27105 306 4 18.6497 18.8892 6.58293 
27097 306 4 19.2993 20.4481 6.19807 
27104 306 4 19.0704 19.662 7.12849 
27103 306 4 19.499 20.6037 7.16553 
27114 306 4 19.8205 21.462 6.6841 
27316 317 4 21.8816 22.2494 32.4322 
27315 317 4 21.0908 21.7272 32.8491 
27320 317 4 21.5826 25.4701 1.30963 
27312 317 4 19.2902 23.0406 2.22791 
27306 317 4 20.1042 23.3136 1.71509 
27307 317 4 20.5859 22.645 1.14859 
27305 317 4 20.9181 23.5867 1.20227 
27323 317 4 19.422 24.0435 2.44856 
27311 317 4 20.4364 24.2553 1.76877 
27321 317 4 20.7455 25.4462 1.91839 
27322 317 4 19.9547 24.924 2.33527 
27310 317 4 21.2504 24.5284 1.25595 
27319 317 4 22.2417 24.9894 33.035 
27308 317 4 21.3999 22.918 32.9987 
27309 317 4 21.7321 23.8597 33.0524 
27182 310 4 25.5372 2.39325 2.06588 
27256 314 4 25.551 2.37573 2.05108 
27181 310 4 25.3161 1.48582 2.51259 
27257 314 4 25.3232 1.46819 2.49418 
27175 310 4 26.757 2.23669 1.9125 
27174 310 4 26.3015 1.45822 2.34442 
27250 314 4 26.3109 1.44033 2.34021 
27249 314 4 26.7728 2.21883 1.91522 
27248 314 4 27.2986 1.41248 2.18624 
27172 310 4 27.2869 1.43062 2.17625 
27255 314 4 26.2471 3.02517 1.64419 
27183 310 4 26.2271 3.04275 1.64874 
27184 310 4 27.201 3.26028 1.37296 
27266 314 4 27.2249 3.2425 1.38255 
27223 312 4 27.2534 1.63549 27.3145 
27285 315 4 27.3022 1.67488 27.3514 
27224 312 4 26.6235 1.08356 26.7059 
27284 315 4 26.6527 1.1267 26.7602 
27068 304 4 22.686 11.286 3.72456 
27067 304 4 22.563 10.2619 3.63539 
27093 305 4 22.5429 6.27154 27.1813 
27030 302 4 22.5217 6.24558 27.1502 
27029 302 4 22.8708 7.2202 27.1587 
27092 305 4 22.8792 7.25061 27.1954 
27091 305 4 22.7995 8.22107 27.5472 
27028 302 4 22.8083 8.19197 27.5103 
27090 305 4 22.325 8.92288 28.1423 
27027 302 4 22.3509 8.90051 28.1108 
27069 304 4 22.2904 12.2232 3.91742 
27013 301 4 24.6897 15.8294 11.5988 
27208 311 4 24.1511 13.7911 13.377 
27016 301 4 24.1027 13.726 13.3966 
27209 311 4 24.4742 14.1287 12.4532 
27015 301 4 24.4483 14.0478 12.4752 
27014 301 4 24.6632 14.8177 11.8172 
27198 311 4 24.6602 14.9089 11.7985 
27199 311 4 24.6595 15.9227 11.5886 
27193 311 4 24.2174 16.3395 12.6688 