ITEM: TIMESTEP
0
ITEM: NUMBER OF ATOMS
950
ITEM: BOX BOUNDS pp pp pp
7.1354277009520928e-01 3.3076457229894366e+01
7.1354277009520928e-01 3.3076457229894366e+01
7.1354277009520928e-01 3.3076457229894366e+01
ITEM: ATOMS id mol type x y z 
24627 0 5 1.2094 0.883748 1.15256 
22915 0 5 2.73801 0.857946 2.41482 
8624 0 5 4.15039 5.45307 2.68779 
23253 0 5 2.53784 1.42736 5.28348 
18289 0 5 1.54556 5.01955 8.08798 
20354 0 5 5.00595 3.96867 11.4704 
15426 0 5 3.80151 2.28149 12.2157 
5882 0 5 3.14208 2.57812 14.3966 
24345 0 5 4.1203 4.37114 14.0682 
23395 0 5 4.21042 1.09901 15.2003 
21192 0 5 5.13501 1.76426 16.1155 
1582 0 5 1.54281 3.07327 16.8706 
13694 0 5 3.79798 4.99385 15.3247 
21973 0 5 2.37736 2.37728 18.3937 
14963 0 5 2.679 4.72929 21.6223 
12562 0 5 5.84521 5.57723 21.4611 
6221 0 5 5.63322 4.8308 22.4407 
26751 0 5 1.24297 2.96304 24.2175 
18697 0 5 0.945266 2.38521 28.8026 
16746 0 5 3.86621 1.53266 29.0369 
3424 0 5 4.96882 2.13821 30.5935 
21595 0 5 5.20191 4.23339 31.0029 
1324 0 5 2.02219 5.09253 31.219 
4892 0 5 3.84456 5.82596 30.7756 
13773 0 5 1.70142 5.61891 32.2714 
20266 0 5 5.70329 9.22185 1.95678 
15395 0 5 1.04123 10.5576 2.06357 
18240 0 5 4.80373 11.4743 3.07223 
19305 0 5 6.05195 9.87986 2.89736 
24365 0 5 3.85819 6.87527 5.62594 
19080 0 5 4.77433 11.0021 5.73488 
25013 0 5 0.986156 8.75788 7.25299 
20933 0 5 1.47547 7.50929 9.6471 
17451 0 5 2.5565 10.6464 8.15746 
8545 0 5 1.10026 8.18541 11.1873 
14086 0 5 3.53268 6.86783 11.7882 
12411 0 5 4.91919 6.71533 11.8546 
11083 0 5 4.72108 9.44531 14.9713 
11778 0 5 2.18016 9.9268 15.2264 
19972 0 5 1.48136 11.0933 16.5235 
21889 0 5 5.15284 9.90345 15.8566 
20849 0 5 5.03961 8.34987 18.9839 
10242 0 5 3.64876 7.06714 22.2444 
13078 0 5 2.823 9.14651 21.8157 
6036 0 5 1.45956 7.95206 22.7705 
7827 0 5 1.1918 8.05177 23.9268 
15118 0 5 5.89287 10.8243 24.0228 
2097 0 5 0.796394 10.8638 25.2417 
8600 0 5 4.78718 10.7853 27.492 
6317 0 5 2.97687 8.08038 28.4651 
18361 0 5 5.49746 7.33415 29.7258 
16372 0 5 2.57841 6.10916 31.9194 
5274 0 5 3.86865 7.0657 32.9415 
24882 0 5 1.82996 11.8684 1.31606 
24506 0 5 1.79856 13.8143 2.50538 
21374 0 5 4.0237 13.8996 0.994285 
2844 0 5 1.28901 15.464 1.87791 
25119 0 5 2.8945 11.5881 5.20985 
6562 0 5 3.68988 12.2083 7.56361 
9186 0 5 5.15765 12.9261 6.13545 
20598 0 5 2.46426 13.1322 8.1931 
16743 0 5 0.94069 12.6462 9.07748 
26099 0 5 2.96343 14.3773 8.3215 
10743 0 5 1.38137 15.2388 8.77551 
16801 0 5 3.92784 11.9277 10.3951 
20216 0 5 3.204 16.2847 10.2382 
21139 0 5 1.39122 15.8305 13.6634 
496 0 5 3.20516 16.6838 13.8741 
13985 0 5 5.1461 14.6218 16.9103 
17006 0 5 4.24376 13.3805 19.9775 
22477 0 5 3.45369 12.2319 25.3205 
23933 0 5 2.33072 13.5845 25.0634 
22922 0 5 1.90052 14.642 25.5252 
24971 0 5 2.94894 14.4839 24.511 
17860 0 5 3.19644 12.37 27.3178 
13082 0 5 4.54453 11.9322 27.1787 
8336 0 5 3.19905 13.3455 26.6001 
7497 0 5 3.82885 15.4923 26.7055 
18994 0 5 2.96686 13.0413 29.3669 
2573 0 5 3.39293 13.5818 27.7186 
22224 0 5 5.44321 14.8375 28.8125 
4273 0 5 4.30265 16.1772 29.2165 
15551 0 5 4.94834 15.7479 28.5506 
22497 0 5 5.62498 16.5963 30.7973 
3110 0 5 4.39067 11.7803 32.7953 
25591 0 5 4.81131 16.1148 32.3215 
14444 0 5 1.67619 18.5222 3.68045 
409 0 5 6.07768 20.7908 5.10147 
26485 0 5 2.52424 17.889 9.49719 
8620 0 5 4.96417 18.4856 9.54252 
21007 0 5 3.38843 21.3103 10.4562 
5946 0 5 4.19501 18.6084 12.146 
618 0 5 3.56626 20.471 14.4035 
14389 0 5 1.90529 21.6656 16.0353 
9726 0 5 5.05987 22.1663 16.2732 
21720 0 5 1.77722 19.6665 17.8025 
19955 0 5 1.09659 18.7343 16.9291 
7144 0 5 2.24777 21.3105 16.9867 
8912 0 5 6.06559 20.22 20.3101 
18945 0 5 2.43997 18.8648 21.7774 
18906 0 5 4.68127 17.7383 22.7241 
1003 0 5 5.04633 17.7919 25.8387 
1272 0 5 5.15276 19.8234 25.6891 
20243 0 5 2.62212 21.776 24.8871 
14759 0 5 3.01495 19.3722 26.0125 
8757 0 5 2.85222 19.0191 27.3227 
654 0 5 4.6092 19.7478 28.6593 
8202 0 5 4.2486 21.5871 28.943 
4474 0 5 5.29111 21.612 28.4323 
13924 0 5 1.32569 19.3543 30.8385 
13558 0 5 4.15274 20.3185 30.37 
13520 0 5 4.54682 19.6262 31.8816 
21060 0 5 3.69433 25.2879 0.969556 
14786 0 5 6.01907 23.5919 4.87832 
1578 0 5 1.04448 24.6413 4.90894 
5659 0 5 4.727 26.9974 4.51744 
5115 0 5 4.67947 25.9496 6.99448 
26178 0 5 4.87428 23.409 8.33955 
8714 0 5 4.50459 23.7288 12.819 
4576 0 5 1.31125 27.0021 13.4246 
15871 0 5 3.08004 22.8887 15.5942 
19004 0 5 3.58104 27.6411 21.7121 
5227 0 5 4.16631 22.6545 22.8708 
24026 0 5 3.4256 27.1621 22.8595 
24567 0 5 3.4905 25.3564 24.1356 
17100 0 5 2.8929 22.7465 27.9326 
22924 0 5 5.78528 23.2318 32.7185 
5955 0 5 2.47294 26.6588 31.9494 
20964 0 5 4.01078 27.1002 31.6051 
8559 0 5 3.64106 31.6466 0.782014 
9077 0 5 5.52413 28.4619 2.9263 
4347 0 5 0.87822 28.2259 5.34691 
974 0 5 2.09725 31.0669 5.80391 
19613 0 5 4.34025 30.4788 5.63714 
22511 0 5 1.15211 31.2778 9.32295 
14497 0 5 2.33782 30.6565 8.18151 
19863 0 5 3.79909 30.6877 9.10335 
14161 0 5 2.34282 27.8341 10.2605 
14884 0 5 2.48482 29.9302 10.6004 
25310 0 5 3.29924 29.8848 13.0761 
18470 0 5 4.66854 31.367 12.8576 
8434 0 5 4.05044 30.2817 14.7468 
23965 0 5 1.80655 32.0456 14.8934 
20286 0 5 5.26736 32.0177 13.4258 
8464 0 5 4.67095 28.6456 15.9785 
10825 0 5 4.42545 29.4609 19.4568 
14131 0 5 5.32846 30.1004 19.7554 
22899 0 5 2.28801 27.9297 21.481 
25127 0 5 1.047 28.5983 20.7701 
12042 0 5 6.02991 30.5795 21.6445 
8590 0 5 1.34419 28.5152 23.361 
12612 0 5 4.24407 27.7353 23.545 
12866 0 5 3.34435 29.1983 22.4363 
24985 0 5 1.29677 30.0946 23.6487 
18080 0 5 2.22102 32.984 23.0614 
9760 0 5 2.90625 29.2464 24.3988 
7152 0 5 3.87622 33.0063 27.1363 
9776 0 5 5.37575 29.1559 29.3794 
14171 0 5 4.03317 28.2203 30.7556 
13289 0 5 6.08018 30.5988 29.5686 
11060 0 5 5.75806 30.4248 31.8833 
4305 0 5 2.28006 32.5712 32.7765 
10042 0 5 10.8268 3.62943 8.24101 
1830 0 5 10.6433 3.58556 9.37998 
21432 0 5 10.5134 1.69052 10.7109 
5258 0 5 6.46499 3.32707 10.0779 
886 0 5 8.70043 1.58814 12.953 
21841 0 5 10.7984 4.12297 12.2175 
15229 0 5 10.8012 5.10463 11.7044 
2940 0 5 10.0824 1.63992 16.0757 
12281 0 5 7.10255 3.5314 16.1891 
23789 0 5 9.43251 5.72608 15.5174 
8420 0 5 6.77443 5.4446 19.5585 
2425 0 5 6.52956 1.59206 22.8622 
22217 0 5 6.55126 5.60267 24.3729 
7170 0 5 9.36947 4.37945 24.7595 
17917 0 5 8.56941 5.49463 27.4746 
23084 0 5 6.14997 2.25445 31.2125 
23245 0 5 7.16292 1.82081 31.315 
5576 0 5 6.64621 5.08639 31.3726 
22675 0 5 9.40636 7.78583 2.41861 
6236 0 5 7.51158 8.14841 2.73443 
25571 0 5 11.2422 10.765 3.90015 
5265 0 5 6.81438 8.0765 4.88093 
16698 0 5 6.6337 9.07401 5.55817 
13261 0 5 11.0898 10.3571 5.33438 
22402 0 5 6.15541 10.1708 7.36586 
14334 0 5 9.44759 11.425 6.63115 
15637 0 5 10.3579 10.9172 7.24684 
5239 0 5 7.07691 6.63651 10.8558 
25282 0 5 8.19093 7.83214 9.83196 
13454 0 5 6.31792 6.81623 11.6002 
1701 0 5 8.1582 7.42031 13.3132 
23548 0 5 9.02801 11.0475 13.9668 
2327 0 5 8.29945 10.1984 14.0431 
11417 0 5 9.43931 7.4777 15.9483 
23922 0 5 11.3628 6.68747 15.5603 
13088 0 5 8.50693 6.57494 18.6243 
19070 0 5 6.26664 6.37691 19.1 
13149 0 5 6.94385 6.27985 21.3886 
714 0 5 9.08353 9.68748 21.6932 
26829 0 5 7.4456 6.58207 25.8795 
11468 0 5 6.30139 8.46428 24.4716 
14587 0 5 6.63019 9.56404 26.8845 
14141 0 5 9.86585 6.14447 29.4714 
19279 0 5 6.57825 6.42293 29.9119 
6537 0 5 9.41571 6.30949 30.7025 
16671 0 5 6.44303 13.0217 1.3411 
6290 0 5 9.04465 15.1965 2.14827 
330 0 5 9.90683 16.4862 5.19326 
22167 0 5 8.4051 13.6006 8.10666 
12447 0 5 11.3949 14.411 10.7084 
20351 0 5 11.0973 15.5033 10.3557 
16729 0 5 8.03968 14.5617 12.9378 
12576 0 5 9.03148 13.3999 14.2911 
1158 0 5 9.35865 14.3763 14.9759 
20869 0 5 8.25154 14.5803 19.2066 
7742 0 5 7.91634 16.7694 20.5846 
11702 0 5 6.54835 14.3041 23.7539 
3669 0 5 7.33377 15.4706 23.5441 
2911 0 5 8.28208 16.4909 22.7657 
15500 0 5 6.91998 14.4763 24.7023 
10190 0 5 7.99341 13.1629 28.9301 
2790 0 5 9.07403 12.1401 28.2746 
24620 0 5 10.0613 11.5841 27.8173 
12656 0 5 9.77 15.1745 27.941 
7901 0 5 6.29011 12.949 30.6841 
20675 0 5 8.44929 12.368 30.2285 
25351 0 5 8.11559 15.9869 31.914 
9612 0 5 7.43719 16.9187 2.00843 
14785 0 5 7.67433 19.2286 2.15303 
5492 0 5 9.78435 21.2691 1.14786 
17198 0 5 7.80903 17.2148 3.56055 
10880 0 5 7.4567 21.2021 2.56679 
1121 0 5 9.44939 18.6046 7.62276 
15274 0 5 11.2489 19.1315 7.11022 
24095 0 5 11.339 20.3321 6.78798 
26839 0 5 8.29332 17.28 14.8199 
8476 0 5 11.2878 21.3929 14.5192 
12816 0 5 6.35794 22.162 16.7958 
22463 0 5 7.64296 17.5111 17.6386 
9514 0 5 9.31745 17.8773 18.061 
5112 0 5 11.313 19.8571 18.1854 
23009 0 5 9.85929 17.2586 21.6132 
12958 0 5 10.4657 20.1642 21.0933 
11247 0 5 9.57703 18.4686 22.403 
12748 0 5 6.66313 22.1658 22.6918 
343 0 5 6.71575 17.3291 25.4033 
21373 0 5 8.27941 19.9218 25.1512 
12201 0 5 9.7644 21.4881 26.793 
806 0 5 7.99156 18.8219 27.925 
2956 0 5 6.12583 21.3884 29.1901 
2011 0 5 7.35063 17.7782 29.5651 
15624 0 5 7.3038 20.3889 30.5502 
6834 0 5 8.8725 19.7253 30.3844 
15695 0 5 9.27509 20.843 30.067 
15312 0 5 11.3444 21.5021 30.0109 
15098 0 5 8.21246 17.2131 32.7688 
1530 0 5 6.59813 21.9835 31.3063 
16270 0 5 6.57581 23.6226 1.12967 
12366 0 5 7.11339 24.631 2.43345 
25220 0 5 10.3945 24.6502 0.768806 
15654 0 5 10.7113 24.8675 3.05496 
8625 0 5 8.32762 26.0366 2.65299 
15402 0 5 10.2135 24.0309 4.67332 
13965 0 5 10.4586 25.095 5.28265 
3709 0 5 9.35259 22.7578 6.39054 
8834 0 5 6.81454 25.657 7.70767 
15322 0 5 9.36139 25.5044 7.83835 
2166 0 5 9.53375 24.0157 10.7546 
22450 0 5 9.29816 23.3948 12.9046 
22802 0 5 10.1367 22.9317 12.448 
25270 0 5 7.40555 22.8457 14.7671 
5168 0 5 6.93613 22.3691 15.8957 
15448 0 5 8.03623 22.7787 16.866 
22334 0 5 10.0392 22.6738 16.3388 
15297 0 5 8.09444 26.6208 16.7668 
7681 0 5 9.40715 23.2593 19.9061 
1763 0 5 7.48979 24.3886 19.791 
8875 0 5 9.97934 22.3394 21.4941 
22370 0 5 6.74415 26.6166 20.6679 
20579 0 5 9.20651 23.2115 23.3839 
24910 0 5 7.08386 23.3442 25.4217 
9831 0 5 10.9734 23.4296 27.4408 
1122 0 5 9.77628 25.3924 28.8074 
22237 0 5 8.10754 22.6182 30.4257 
4771 0 5 9.74212 23.0875 32.6936 
2065 0 5 8.59825 25.8949 31.4627 
16838 0 5 8.00129 28.8065 2.95095 
9535 0 5 8.47578 28.4358 3.87676 
2183 0 5 11.0306 28.65 4.00027 
8617 0 5 7.26801 30.1289 3.19045 
7501 0 5 9.4252 31.053 3.55661 
1000 0 5 9.17076 28.635 5.56106 
21970 0 5 9.38036 28.5418 7.63166 
22936 0 5 8.9428 28.2423 9.00648 
8203 0 5 9.60033 29.4701 9.60492 
16371 0 5 10.9676 30.5283 9.98534 
4799 0 5 7.84305 28.6707 12.9294 
16277 0 5 10.6755 31.1891 14.1404 
13325 0 5 6.45989 32.4406 13.8597 
24307 0 5 6.93756 29.5638 15.3777 
9261 0 5 8.86291 30.4888 20.1534 
15299 0 5 11.4943 29.5914 20.3306 
2755 0 5 7.05996 30.4061 21.6926 
11241 0 5 8.89633 32.6301 22.2879 
20461 0 5 9.18092 29.8173 23.9751 
23002 0 5 11.0533 30.087 22.3596 
24361 0 5 9.91617 27.9943 24.914 
1083 0 5 11.1184 28.0362 25.6319 
15963 0 5 6.1221 28.8505 27.2149 
10329 0 5 9.52787 29.5099 27.0827 
9142 0 5 8.02433 31.605 25.9571 
14637 0 5 11.4226 31.0219 28.286 
4284 0 5 7.02677 32.9052 28.2369 
12362 0 5 6.28699 28.9056 31.9896 
16286 0 5 12.3775 1.73762 1.37648 
4819 0 5 11.5501 4.51224 5.9844 
9699 0 5 14.631 2.20976 6.42798 
9636 0 5 16.719 0.956065 9.25636 
20241 0 5 15.5509 0.881999 8.72474 
15877 0 5 12.4015 2.5681 8.41938 
11732 0 5 14.7178 3.8043 8.55161 
7245 0 5 12.1505 4.13654 13.2557 
21057 0 5 14.5908 3.31598 14.9318 
19485 0 5 12.0477 0.843798 16.0061 
4668 0 5 12.987 4.94193 16.2583 
11680 0 5 15.7408 5.83628 16.4666 
17191 0 5 16.7401 1.14166 18.5167 
5505 0 5 14.4113 4.1537 17.3844 
6030 0 5 16.6935 4.2429 19.8463 
6461 0 5 14.9445 4.37873 19.302 
15934 0 5 12.4152 1.51897 21.2482 
12815 0 5 12.43 3.50863 21.4009 
14242 0 5 11.644 5.61777 21.4144 
13452 0 5 13.4168 1.37832 22.7172 
1799 0 5 12.2217 4.01535 22.4415 
24310 0 5 13.8958 3.7611 22.7892 
17499 0 5 14.8555 4.09065 24.9367 
11294 0 5 16.3317 2.90853 24.323 
15727 0 5 13.3686 5.3676 24.6677 
22506 0 5 14.1058 5.97877 24.1772 
16130 0 5 13.9401 5.73448 28.9824 
11479 0 5 15.7777 4.06432 30.3711 
10827 0 5 13.4495 4.31785 30.7747 
3429 0 5 14.719 5.80177 29.6759 
21753 0 5 15.6654 7.39958 1.09902 
26816 0 5 12.7452 9.28849 1.3769 
15696 0 5 12.4366 7.46254 2.86609 
17747 0 5 14.3878 6.93043 4.78678 
3927 0 5 15.3712 6.75893 5.31969 
20751 0 5 14.9114 8.41872 4.49637 
16449 0 5 11.982 8.19097 6.63847 
18453 0 5 14.5393 6.2982 10.6145 
13399 0 5 13.8522 7.21251 12.7638 
2074 0 5 16.4837 11.245 11.7366 
26836 0 5 13.1099 7.73769 14.8196 
19234 0 5 12.693 9.70904 15.7072 
15718 0 5 15.5063 7.93564 17.0743 
12571 0 5 14.8882 6.77726 19.261 
22839 0 5 16.1627 8.20105 19.6558 
15103 0 5 12.4185 9.15551 20.9769 
10146 0 5 15.0367 8.94361 21.5228 
16143 0 5 16.3238 9.50459 21.6645 
7351 0 5 15.9095 8.75242 23.5278 
20410 0 5 12.9134 6.72194 25.4936 
6972 0 5 12.8204 9.17359 26.8598 
23016 0 5 15.7887 7.79268 28.4423 
16845 0 5 14.8563 9.00199 27.7005 
4548 0 5 12.1634 8.59317 32.1104 
14679 0 5 13.7777 9.08543 31.3622 
19337 0 5 12.0224 12.4046 2.72031 
20693 0 5 15.5647 15.0863 3.42579 
9257 0 5 14.2863 13.8842 5.57411 
23015 0 5 12.4703 16.3069 4.73968 
21122 0 5 16.2681 12.2396 7.67639 
3224 0 5 16.3257 13.5675 6.16602 
17704 0 5 11.8423 16.0196 6.14915 
26072 0 5 14.2779 12.5145 8.68477 
23620 0 5 13.7513 14.3782 8.52924 
3211 0 5 12.0333 11.5338 11.507 
20605 0 5 16.4533 12.5308 13.2188 
20606 0 5 15.7307 14.7461 12.0896 
14863 0 5 13.7769 13.226 16.5664 
17262 0 5 14.5018 15.8032 20.2481 
7679 0 5 14.6168 12.8172 21.478 
20973 0 5 13.8669 13.3936 20.9286 
8828 0 5 11.5469 16.3209 20.5228 
4497 0 5 16.5323 15.8646 25.2483 
23042 0 5 14.5226 14.9756 27.6707 
19991 0 5 11.6026 15.3058 27.6683 
25782 0 5 11.6561 12.4909 28.8272 
23691 0 5 14.9284 14.2977 28.9536 
15969 0 5 13.9732 13.6536 31.1596 
23496 0 5 12.6219 18.0424 4.58808 
7763 0 5 14.3617 19.9337 5.66434 
2712 0 5 14.1377 17.9723 7.81391 
11957 0 5 12.5748 21.7816 6.89786 
20249 0 5 16.5415 22.0496 7.03541 
4004 0 5 13.4 21.816 8.80851 
11195 0 5 15.5492 18.1417 10.8723 
18533 0 5 16.0719 20.2379 12.5051 
13455 0 5 13.123 17.3696 14.8492 
35 0 5 11.6483 18.4587 14.7601 
17330 0 5 13.9776 20.1941 14.8137 
16961 0 5 14.3064 21.1205 14.7965 
5173 0 5 15.2415 21.7677 16.4422 
25914 0 5 15.114 18.8969 17.3423 
18703 0 5 15.1148 17.7963 20.1816 
166 0 5 16.5205 19.9783 18.7122 
2181 0 5 14.8172 18.5185 20.8903 
11872 0 5 11.7934 20.8145 22.5544 
117 0 5 11.5247 17.4372 26.2332 
16820 0 5 13.1011 21.456 25.958 
15437 0 5 13.367 20.5418 30.6721 
15659 0 5 13.6227 23.237 1.98318 
9686 0 5 15.6557 23.4855 2.12216 
20680 0 5 16.8378 25.2094 1.73235 
14259 0 5 15.9722 27.5021 1.70644 
19966 0 5 14.2313 22.6706 2.84603 
3885 0 5 16.1184 22.3888 3.59484 
9878 0 5 16.074 24.1655 2.94088 
12867 0 5 16.8891 25.1919 2.93126 
12940 0 5 12.857 25.1695 4.89178 
10677 0 5 16.4757 24.2574 5.84073 
20056 0 5 11.7004 27.3282 6.1782 
3187 0 5 13.9836 27.4853 8.16653 
12925 0 5 14.1898 26.5114 8.83414 
16720 0 5 13.1156 22.7281 10.4879 
1515 0 5 13.5982 23.5254 10.9872 
21408 0 5 14.2456 27.112 10.4004 
9698 0 5 15.1738 27.0879 9.78002 
4348 0 5 12.2517 22.968 14.2978 
3824 0 5 11.5166 25.2072 13.3329 
12590 0 5 12.6808 25.4246 14.7539 
9823 0 5 15.5028 24.8519 15.7205 
15953 0 5 16.0059 25.9557 18.0802 
17351 0 5 16.4521 26.81 17.5538 
3172 0 5 11.6914 23.8549 18.701 
4016 0 5 12.8264 26.7374 21.798 
26186 0 5 13.8437 27.0132 21.363 
21182 0 5 13.0745 25.7314 22.7888 
16786 0 5 14.3905 25.8053 22.338 
26333 0 5 14.4103 27.3607 23.1216 
4147 0 5 15.5546 23.7106 25.11 
2821 0 5 14.9262 23.6931 25.9382 
897 0 5 15.182 25.5682 26.1896 
8324 0 5 16.6635 27.3628 27.2967 
1645 0 5 14.8179 24.0098 28.4576 
5240 0 5 14.6312 25.1614 28.2119 
8477 0 5 13.6793 24.5945 29.1946 
21288 0 5 15.5845 23.6667 30.1279 
6288 0 5 13.5175 25.0594 31.0511 
15088 0 5 13.5755 26.4326 30.6542 
25353 0 5 15.5766 24.6022 31.8639 
9454 0 5 12.1931 30.9662 1.91193 
20379 0 5 14.6583 29.6951 1.23692 
8779 0 5 14.0657 27.8206 2.77181 
9727 0 5 13.7301 29.3791 2.99985 
138 0 5 14.4234 28.6393 3.32387 
12899 0 5 15.0337 27.8189 3.08164 
14239 0 5 14.8232 31.7226 2.67937 
26535 0 5 12.3499 29.0859 5.74254 
9921 0 5 16.0805 31.0938 4.69031 
18489 0 5 12.8371 31.5286 5.58194 
15726 0 5 13.5934 32.462 6.4814 
25152 0 5 14.3812 32.8711 6.98969 
235 0 5 13.8053 32.4831 9.59159 
16948 0 5 13.3982 28.319 9.77371 
23182 0 5 15.3688 28.6858 10.6087 
17249 0 5 12.3796 32.8947 11.1926 
9116 0 5 13.4119 32.0375 11.4133 
212 0 5 14.6919 30.3481 11.6985 
24755 0 5 13.062 29.2116 14.1323 
24085 0 5 13.9673 30.796 15.0883 
17093 0 5 15.8849 32.0968 15.0587 
23109 0 5 13.6618 29.0543 15.8447 
18531 0 5 16.0539 31.3303 15.9146 
15228 0 5 14.0762 31.6697 18.1359 
14379 0 5 12.3941 32.2743 18.9111 
54 0 5 14.1969 29.1036 21.6879 
5470 0 5 11.789 30.8303 21.8848 
16837 0 5 13.5585 30.3039 22.2481 
25283 0 5 15.3177 28.3051 23.3798 
8603 0 5 15.1401 31.3928 23.1857 
16323 0 5 14.7744 27.7607 24.3986 
12440 0 5 12.4305 28.6174 26.8066 
8222 0 5 14.086 32.9378 28.6712 
22050 0 5 15.4315 29.3099 30.2027 
13964 0 5 11.9687 32.9148 29.8796 
17746 0 5 16.1762 31.2353 31.8217 
13200 0 5 18.7576 2.34703 0.763809 
2977 0 5 18.8675 3.51546 1.52214 
11972 0 5 19.5201 4.4667 0.800139 
11378 0 5 17.2649 1.30917 8.12853 
11661 0 5 19.8908 4.90541 9.4834 
15559 0 5 18.4277 2.69627 11.252 
21818 0 5 19.7825 1.4585 14.8153 
8564 0 5 19.0159 1.5276 16.6466 
4649 0 5 21.851 5.82331 16.4294 
15570 0 5 21.3032 0.898738 18.232 
23030 0 5 18.0782 1.1028 19.551 
14244 0 5 19.4694 2.34039 19.6071 
15099 0 5 20.8704 1.34147 19.0532 
22158 0 5 17.7863 3.0104 19.7467 
7202 0 5 21.7183 5.15372 18.6997 
24247 0 5 17.8802 5.78762 20.7884 
4495 0 5 18.1133 5.71515 23.0175 
19915 0 5 20.4546 1.05363 26.8999 
12952 0 5 22.0302 3.24871 26.6697 
6413 0 5 20.3863 4.50374 28.3596 
21310 0 5 18.9017 7.40787 2.13789 
8573 0 5 19.9398 7.68184 1.69785 
4530 0 5 20.7737 6.41899 1.86073 
10119 0 5 19.8076 10.3835 2.68586 
2418 0 5 20.857 11.4893 3.77227 
16127 0 5 18.9696 8.03679 5.27232 
10236 0 5 20.5135 6.77433 10.1219 
11807 0 5 18.8403 10.5477 10.3592 
16629 0 5 17.6059 11.477 12.5486 
4135 0 5 18.2472 10.5249 14.0861 
14220 0 5 19.4196 11.1691 17.9377 
5352 0 5 18.6785 7.26304 21.8101 
6117 0 5 18.6438 7.81181 23.7455 
3943 0 5 17.4463 6.45124 24.6432 
5442 0 5 18.2399 8.66983 24.4259 
14127 0 5 20.3897 7.96134 24.6926 
7334 0 5 18.6488 11.3724 25.7127 
26135 0 5 19.4708 9.66571 26.168 
20388 0 5 18.8845 8.63893 28.8008 
13036 0 5 18.4231 6.39755 31.8066 
481 0 5 20.933 12.1 0.780701 
24566 0 5 18.8643 16.4715 1.73106 
17749 0 5 17.9753 15.9201 4.32347 
21251 0 5 17.7528 12.159 7.1099 
23702 0 5 19.3237 16.7091 8.2357 
20889 0 5 21.8146 15.9564 8.45342 
18462 0 5 20.4055 12.7517 12.5278 
19956 0 5 18.9404 13.1668 13.5732 
3919 0 5 17.8652 11.8096 15.8547 
16600 0 5 18.4143 15.7882 15.5881 
10201 0 5 18.2924 15.2337 16.619 
17354 0 5 17.8208 12.3767 18.4313 
5497 0 5 20.9888 13.2608 18.1732 
26137 0 5 19.6505 14.3888 20.4053 
4420 0 5 18.699 15.1304 19.7702 
2916 0 5 21.2414 15.3474 19.6605 
4288 0 5 17.1363 11.6331 22.0196 
13534 0 5 21.9151 12.437 23.4675 
16665 0 5 21.5252 16.491 25.3312 
18568 0 5 21.659 12.6405 28.1245 
3158 0 5 20.2229 16.1958 27.7334 
16776 0 5 19.7005 13.6495 30.083 
21407 0 5 17.9558 16.3715 30.1796 
8934 0 5 17.8284 17.6505 3.34617 
5897 0 5 18.29 19.5782 3.2346 
11697 0 5 21.4772 19.7262 5.15382 
15729 0 5 17.4397 21.176 4.38298 
21571 0 5 20.0537 21.4284 4.4588 
8427 0 5 19.4307 19.6182 11.5731 
21953 0 5 17.9404 22.2445 11.6961 
7029 0 5 19.5163 21.6599 11.9973 
19408 0 5 21.084 20.2799 14.259 
15145 0 5 21.7497 21.5785 14.2951 
12922 0 5 17.775 21.0164 18.0474 
22232 0 5 19.6963 18.5118 19.1328 
26893 0 5 18.2738 21.8231 19.9446 
1048 0 5 18.6971 20.1552 21.031 
22447 0 5 17.0251 21.7525 21.6809 
14114 0 5 19.1642 20.8149 22.0529 
13145 0 5 20.8206 22.1163 21.4001 
15385 0 5 21.6368 18.1762 23.1989 
8475 0 5 20.534 19.9124 22.9962 
10725 0 5 19.8031 20.5813 23.0763 
9507 0 5 19.6389 17.2346 24.6024 
9320 0 5 22.1179 22.275 24.7482 
18566 0 5 17.9474 17.9262 27.1014 
11714 0 5 19.0103 22.6708 0.848285 
4829 0 5 19.0876 27.5776 3.81639 
20235 0 5 18.789 27.4036 7.04967 
6661 0 5 19.1844 27.3207 6.16198 
18908 0 5 17.5219 27.5606 8.95975 
1786 0 5 19.6865 26.5015 8.6211 
20061 0 5 21.9596 26.7932 9.08723 
56 0 5 16.9222 27.2424 9.81304 
353 0 5 19.5888 27.5436 10.9793 
13951 0 5 16.9063 23.6528 12.6277 
15992 0 5 18.4922 24.1916 13.0273 
8914 0 5 17.7708 23.3966 14.7961 
21141 0 5 17.1695 25.653 14.8431 
10734 0 5 18.2535 24.5568 15.5898 
10695 0 5 22.1084 27.0809 20.2698 
4538 0 5 20.4564 23.0697 23.9327 
5449 0 5 20.4173 25.724 23.8065 
3179 0 5 22.167 25.2877 23.3335 
12881 0 5 18.6827 27.2961 22.9735 
365 0 5 18.2386 24.7254 25.066 
9902 0 5 22.0582 23.4458 26.2054 
11776 0 5 18.0682 25.5666 27.0211 
25019 0 5 20.4379 27.0637 30.2796 
26700 0 5 21.6624 26.2394 29.6487 
8790 0 5 22.2157 23.6046 32.1097 
3093 0 5 19.2151 26.513 31.8757 
15854 0 5 19.0538 26.8852 32.8709 
6986 0 5 21.6279 27.6607 33.0626 
21066 0 5 20.7696 28.8952 1.68465 
21086 0 5 18.0362 28.7468 3.36686 
1730 0 5 21.2959 28.1164 3.30582 
17918 0 5 18.4879 32.0275 3.13756 
24358 0 5 21.2682 28.7243 5.47799 
10111 0 5 20.4895 30.2998 5.94818 
4366 0 5 20.5019 31.8918 5.24761 
25838 0 5 19.672 32.6951 7.30987 
9065 0 5 18.8079 32.2853 7.93034 
26594 0 5 21.7719 27.6951 10.919 
21663 0 5 21.3925 31.838 10.817 
236 0 5 19.3694 31.2334 14.3888 
4562 0 5 17.9557 28.155 17.0346 
22549 0 5 19.83 29.3748 18.6812 
14435 0 5 20.0361 29.7726 17.7497 
9323 0 5 22.076 32.301 19.3362 
2287 0 5 17.0187 29.7313 22.0438 
7488 0 5 20.6705 31.8643 21.4841 
17349 0 5 21.2162 31.8224 22.4615 
25050 0 5 18.6785 30.3042 25.3604 
2094 0 5 20.1545 32.2482 24.3003 
15219 0 5 21.2994 32.2787 25.1123 
19292 0 5 20.1834 31.1082 27.1397 
9227 0 5 18.5991 32.0794 26.1235 
6241 0 5 20.0405 32.0129 27.6445 
14741 0 5 19.6483 32.2397 26.6685 
4099 0 5 20.2198 29.0092 28.1049 
12513 0 5 21.3973 32.4397 27.8825 
14926 0 5 19.8295 31.9534 29.4935 
20457 0 5 22.8966 1.9119 3.5048 
8337 0 5 24.0274 1.19502 5.82568 
874 0 5 25.8464 1.13649 5.66779 
23175 0 5 26.3386 1.31841 10.6364 
2985 0 5 23.2736 4.09249 11.0317 
24956 0 5 23.1313 5.74323 10.9549 
4774 0 5 24.5669 5.41425 11.186 
13752 0 5 22.411 4.18483 12.7585 
2242 0 5 27.4087 2.66945 11.6136 
22947 0 5 25.7478 4.08969 16.0832 
21461 0 5 22.2991 4.58908 17.9786 
12020 0 5 27.1492 4.56422 18.3663 
23343 0 5 22.4319 2.34182 19.2371 
23842 0 5 23.8879 3.94405 20.3365 
26035 0 5 25.9935 1.80818 21.904 
26994 0 5 24.663 3.67533 21.1614 
8884 0 5 23.2582 1.54859 23.9163 
1579 0 5 27.4878 3.9518 25.8837 
8753 0 5 23.8959 5.06167 24.5395 
15642 0 5 26.2825 5.6676 25.5601 
13077 0 5 25.6706 4.77164 25.9011 
13551 0 5 25.6499 3.25424 28.0595 
17992 0 5 24.992 4.21651 29.7636 
4535 0 5 24.5442 5.24136 29.5973 
14424 0 5 27.0659 6.01647 31.0429 
17851 0 5 26.5365 6.19525 3.03866 
21291 0 5 26.8011 8.28815 3.86582 
9293 0 5 26.2364 9.29261 4.06171 
24817 0 5 26.9747 10.9445 3.32901 
6744 0 5 27.5001 10.9441 6.08647 
26985 0 5 22.9134 10.1267 9.56045 
2753 0 5 23.2778 8.72079 9.88373 
7826 0 5 27.3581 7.61111 13.3329 
4613 0 5 25.8604 6.63947 17.7698 
16753 0 5 26.7118 8.53214 17.211 
2109 0 5 26.4862 10.855 18.5042 
3605 0 5 24.3641 7.55693 19.2657 
14026 0 5 26.4417 10.0747 21.8148 
15014 0 5 22.7411 11.3783 23.4452 
2343 0 5 26.5132 9.5289 24.5177 
10124 0 5 25.7169 9.39041 26.5879 
20394 0 5 26.4256 6.67932 30.5043 
1770 0 5 23.798 8.77106 30.6569 
3955 0 5 23.1511 8.81331 32.5544 
14231 0 5 23.2029 10.5061 31.4939 
16291 0 5 25.965 11.936 2.45321 
11097 0 5 23.0317 12.3264 5.01826 
13859 0 5 24.8369 15.3259 5.28672 
8719 0 5 24.8508 11.9138 7.70648 
15951 0 5 26.62 12.4647 6.67782 
20494 0 5 24.5376 15.0423 8.77782 
5070 0 5 26.8405 14.8766 9.533 
7339 0 5 22.9485 15.5544 9.02058 
22054 0 5 27.4143 13.1427 12.4099 
19378 0 5 22.9456 13.9438 11.5551 
21597 0 5 23.7295 14.3525 15.3388 
6822 0 5 24.8685 14.526 15.713 
22912 0 5 25.4598 16.6342 15.9279 
6932 0 5 25.1044 15.6921 16.4309 
20495 0 5 23.1709 12.6272 18.5928 
10279 0 5 26.4056 12.8899 17.4808 
11707 0 5 24.5512 14.1436 18.6348 
8491 0 5 22.93 15.9812 16.9868 
20255 0 5 23.7029 14.6832 19.3175 
6757 0 5 22.3436 13.9345 20.0673 
14434 0 5 26.8078 14.9305 18.9005 
17721 0 5 26.0617 16.7873 19.9312 
10814 0 5 26.3949 13.8372 20.5407 
12391 0 5 22.6355 16.2886 21.2363 
14337 0 5 27.573 16.849 21.3041 
22135 0 5 26.0701 14.358 23.6783 
26434 0 5 27.139 13.3562 25.1743 
16716 0 5 26.3438 12.3849 26.0589 
11738 0 5 27.1182 14.4274 25.9037 
19936 0 5 24.8634 12.7254 28.7588 
4641 0 5 23.1993 13.6818 29.0437 
15376 0 5 23.3069 11.7439 30.2233 
7845 0 5 24.3587 12.3257 29.9728 
7622 0 5 25.4933 16.2941 30.98 
21872 0 5 22.4253 12.018 32.6851 
11366 0 5 24.0399 14.8272 31.7405 
11512 0 5 23.7084 21.2445 1.31992 
11858 0 5 25.6271 18.1881 7.18851 
16493 0 5 27.3591 19.9429 7.06902 
9150 0 5 24.6498 21.334 6.13284 
20455 0 5 24.3588 20.003 8.33168 
7683 0 5 24.8869 19.8009 12.3223 
7604 0 5 26.9728 21.1146 14.9948 
3598 0 5 23.1261 21.8562 17.5294 
26670 0 5 23.4049 20.5976 19.5689 
20038 0 5 23.1315 19.5895 20.724 
1119 0 5 22.5806 21.2756 21.8564 
3617 0 5 23.5453 18.3272 23.9943 
23806 0 5 22.7808 18.3046 24.9219 
7636 0 5 24.0999 21.0804 24.1736 
13398 0 5 26.6651 17.2043 26.0029 
11432 0 5 26.3062 18.5055 27.0749 
16711 0 5 27.6799 18.9191 27.478 
4948 0 5 22.5396 20.7445 26.1248 
15450 0 5 23.5354 19.9978 27.8913 
14431 0 5 24.9588 20.3013 29.9975 
5592 0 5 24.2562 22.2692 29.9761 
8932 0 5 22.3823 24.9783 2.72259 
13765 0 5 26.7927 26.1397 3.07128 
1532 0 5 24.5987 24.2808 7.43681 
5908 0 5 26.5647 24.6803 7.26035 
9395 0 5 25.7139 26.4743 6.58307 
24581 0 5 26.6256 26.7121 9.1402 
7584 0 5 24.0412 25.4068 11.4085 
5656 0 5 23.8379 25.0249 10.3451 
8805 0 5 23.496 26.3819 11.8913 
21645 0 5 24.4949 26.4314 13.0428 
4912 0 5 26.564 26.7304 14.9781 
3191 0 5 27.1965 25.8115 15.5603 
20851 0 5 23.6129 24.4949 17.3543 
16432 0 5 23.1942 22.5886 21.792 
17025 0 5 26.8898 27.0253 20.6334 
13448 0 5 26.5394 27.2863 22.1299 
2961 0 5 25.1218 22.2995 24.6713 
19265 0 5 26.5662 26.6018 24.4221 
18124 0 5 26.3676 23.1714 27.2611 
24362 0 5 23.5329 24.8073 26.721 
17316 0 5 27.4797 27.1302 27.4356 
25262 0 5 26.5912 26.992 26.9382 
8939 0 5 23.6245 24.4276 29.9174 
5909 0 5 24.1305 24.7415 33.0038 
8634 0 5 25.499 25.7925 33.0102 
2298 0 5 24.5229 30.1263 1.51798 
14968 0 5 27.3024 29.0366 4.66551 
6574 0 5 25.9392 30.1432 5.24481 
13982 0 5 22.7775 31.7301 5.17216 
13284 0 5 24.6449 32.0927 6.3773 
10114 0 5 27.4526 33.0573 6.753 
9520 0 5 22.6714 30.3602 8.93308 
23678 0 5 23.5638 32.733 9.11218 
5854 0 5 24.6195 32.979 8.00673 
20723 0 5 23.5358 28.7551 10.2615 
19842 0 5 23.7971 29.6064 10.9254 
10225 0 5 24.7772 30.3982 10.9368 
20493 0 5 26.3739 31.7072 10.455 
10934 0 5 24.6787 31.0678 11.8255 
1959 0 5 22.6938 27.8268 13.5608 
6264 0 5 24.3514 30.4541 13.3352 
3951 0 5 26.4015 32.7076 13.8088 
8227 0 5 25.0372 29.1634 15.9154 
23007 0 5 24.0003 29.9911 15.4108 
21509 0 5 24.3724 30.0127 18.3085 
6180 0 5 23.9515 28.0531 19.2002 
4633 0 5 26.7827 28.8922 18.9598 
80 0 5 27.3336 32.6873 19.9017 
3196 0 5 25.8521 29.0851 21.5594 
2619 0 5 24.6199 32.7926 20.6005 
4202 0 5 23.0764 30.468 25.6307 
13329 0 5 24.9987 30.5968 24.2074 
15030 0 5 22.6471 32.8571 24.1039 
14749 0 5 26.241 29.7804 28.1834 
21662 0 5 27.4749 29.6892 28.1835 
12903 0 5 25.0076 31.0246 29.9898 
10428 0 5 27.3873 30.5406 30.6702 
17020 0 5 24.2464 31.7386 30.2553 
898 0 5 25.4304 32.9851 31.0279 
4514 0 5 27.0183 28.6649 31.7468 
8204 0 5 25.365 32.1009 31.9313 
24273 0 5 32.274 2.37071 2.56741 
19865 0 5 27.6851 5.50106 4.37274 
26900 0 5 28.7714 2.1871 7.1899 
16626 0 5 32.494 1.5109 8.27915 
18005 0 5 27.9536 4.71869 8.04929 
25787 0 5 28.8462 5.62673 8.27893 
998 0 5 32.1253 5.77281 10.1036 
25548 0 5 31.2088 1.81132 13.1075 
12337 0 5 31.5234 2.56252 14.1617 
25410 0 5 31.3086 4.52679 15.0847 
19069 0 5 30.1998 1.03094 15.5307 
1891 0 5 31.8948 2.21229 15.6407 
22041 0 5 32.7445 2.79062 15.3674 
24590 0 5 28.1131 4.55421 20.2367 
11116 0 5 32.5571 4.87951 19.4076 
15388 0 5 29.0091 2.11433 22.1069 
13908 0 5 28.7503 1.82275 20.9437 
15276 0 5 27.7809 3.95312 22.1372 
15392 0 5 29.0694 4.95271 20.6479 
18290 0 5 28.6767 1.11043 23.5668 
13277 0 5 28.4124 3.05166 22.4672 
26600 0 5 30.5304 4.05764 25.4552 
26878 0 5 29.2511 4.93139 27.9828 
9728 0 5 30.0675 4.27849 31.0156 
11802 0 5 30.2735 8.01496 1.38901 
13676 0 5 28.5168 10.2541 2.72262 
1583 0 5 28.137 6.50115 4.43765 
17756 0 5 28.7655 7.46737 4.85559 
23166 0 5 30.8236 6.9153 4.92772 
5531 0 5 29.758 7.38933 5.52248 
6752 0 5 32.0399 9.44733 5.71584 
14262 0 5 32.8542 10.2203 6.05114 
2630 0 5 31.2606 9.8748 7.60091 
26107 0 5 29.547 9.88419 7.88658 
17326 0 5 29.4428 10.9148 8.51156 
535 0 5 29.5302 6.7035 10.4211 
24272 0 5 29.9888 8.24179 11.2663 
5507 0 5 28.261 6.16268 13.2239 
20587 0 5 32.3186 7.6049 12.784 
16489 0 5 32.5703 8.83146 12.4991 
12009 0 5 32.46 8.21026 11.6824 
12418 0 5 29.2001 10.9048 11.7462 
11359 0 5 30.956 10.406 13.7114 
26529 0 5 29.8145 6.48641 16.8504 
26981 0 5 30.9182 8.42393 17.9495 
2292 0 5 31.0207 7.80011 19.1641 
7163 0 5 29.7339 9.63914 20.0465 
15949 0 5 31.5649 7.08018 23.7526 
23927 0 5 31.7391 8.30671 23.8658 
1496 0 5 28.5384 11.4281 23.9438 
25852 0 5 28.506 7.17756 24.7515 
4626 0 5 32.8633 10.8978 26.8448 
137 0 5 29.2757 8.81825 29.1772 
22274 0 5 31.1284 8.87295 29.5661 
13646 0 5 29.2988 11.094 31.6981 
11626 0 5 30.8987 15.7759 1.26423 
22452 0 5 31.1578 15.8178 3.29821 
14051 0 5 29.7302 14.9783 5.71663 
24426 0 5 30.6425 14.6238 5.02545 
12419 0 5 32.4896 14.8597 5.35083 
3174 0 5 29.9247 15.4164 4.76801 
7350 0 5 30.3724 13.2817 6.74902 
23995 0 5 29.5024 16.3372 6.39499 
25788 0 5 30.2811 15.6269 6.87516 
12539 0 5 32.6814 14.7175 8.65236 
19928 0 5 30.0599 14.5508 9.79023 
10008 0 5 32.6545 15.2616 10.4492 
25597 0 5 29.8683 12.4295 13.19 
4455 0 5 32.8495 15.9806 12.2921 
9307 0 5 30.3655 16.774 14.4947 
24726 0 5 29.9687 11.9642 15.2342 