950
Atoms. Timestep: 0
H 1.871440 11.324800 25.381400
H 1.860120 11.287200 25.355800
H 1.843850 11.355800 25.357600
H 1.896220 10.392400 25.732900
H 1.899540 10.369200 25.778700
H 1.883120 10.330300 25.750200
H 0.767298 9.314590 27.062900
H 0.820831 9.321860 27.035700
H 0.779000 9.345690 27.081100
H 1.521760 9.647930 26.347200
H 1.483120 9.608280 26.375100
H 1.499680 9.644830 26.400800
H 1.099770 10.800900 26.178700
H 1.100950 10.800600 26.198300
H 1.093790 10.768500 26.180200
H 0.674100 12.912000 25.598600
H 0.681466 12.885700 25.590800
H 0.625411 12.917200 25.634900
H 1.422890 12.255500 25.315500
H 1.378710 12.279900 25.321700
H 1.420280 12.222500 25.297400
H 0.862374 11.714700 25.953800
H 0.841014 11.744700 25.973100
H 0.862621 11.743700 25.966700
H 4.363450 16.406800 27.156300
H 3.426610 16.871500 27.821300
H 3.318990 16.809900 28.813500
H 4.008280 16.337600 29.362800
H 4.115900 16.399200 28.370600
H 5.035110 15.790300 28.936300
H 4.912810 15.988500 27.927600
H 3.211370 16.748300 29.805800
H 3.990650 16.193400 30.593500
H 3.103750 16.686600 30.798000
H 4.697580 15.865300 29.912100
H 0.646996 18.455100 23.477200
H 0.627379 18.440200 23.503100
H 1.062870 19.378500 23.544300
H 1.084200 19.393000 23.509000
H 1.052590 20.387700 23.794100
H 1.027910 20.371100 23.836400
H 1.940400 17.754500 27.714900
H 3.534230 16.933100 26.829000
H 2.647330 17.426400 27.033500
H 1.602870 17.829500 28.690700
H 2.629700 17.282200 28.264200
H 2.522080 17.220600 29.256400
H 1.725160 17.631300 29.699400
H 2.274530 17.213000 30.470700
H 5.769490 25.752600 20.017300
H 4.851470 26.151300 20.281900
H 3.325320 23.697400 22.192000
H 4.007240 22.919100 22.222900
H 5.833390 22.608200 21.469100
H 5.360880 23.472000 21.294600
H 4.925260 22.520400 21.958300
H 4.447800 23.627500 21.671500
H 3.062220 24.646800 21.873900
H 3.288430 25.512800 21.353900
H 3.975290 24.491300 21.497000
H 5.328930 25.044200 20.568700
H 5.801440 24.180400 20.743200
H 4.415850 25.199700 20.945600
H 4.888370 24.335900 21.120100
H 3.943340 26.063500 20.771100
H 1.969980 30.446800 0.810537
H 3.779790 29.616000 0.995166
H 2.769630 29.835300 1.051980
H 4.729790 29.847800 0.655305
H 5.823410 28.984300 3.970850
H 5.833230 28.983600 3.900530
H 5.352930 30.644900 4.115060
H 5.358820 30.638200 4.093500
H 5.926730 29.946500 3.647400
H 6.020230 30.909400 3.394280
H 5.921790 29.939500 3.692150
H 6.020170 30.894800 3.413450
H 5.472420 32.819900 3.617110
H 5.451310 31.600200 3.836350
H 5.452320 31.601000 3.840380
H 5.476910 32.812400 3.579960
H 5.136110 29.503100 4.545410
H 5.148530 29.484400 4.493960
H 4.697400 30.367000 4.792730
H 4.685700 30.394900 4.816660
H 4.882460 32.305500 4.259260
H 4.884400 32.292700 4.286480
H 4.600730 31.394900 4.716790
H 4.592860 31.420600 4.711930
H 0.785810 29.465900 14.785700
H 0.782866 29.463700 14.790600
H 0.859267 29.117200 15.757700
H 0.858441 29.122300 15.765000
H 1.595120 31.286800 32.886600
H 4.142530 30.573600 32.848100
H 3.162450 30.567300 33.046500
H 2.575200 31.293100 32.688200
H 3.555280 31.299300 32.489900
H 4.535360 31.305600 32.291500
H 5.365080 30.468500 32.674500
H 5.515440 31.311800 32.093200
H 2.380760 32.750900 31.773400
H 1.745470 32.130100 32.305300
H 2.968020 32.025100 32.131700
H 3.330770 32.982600 31.433600
H 3.948100 32.031300 31.933300
H 5.140570 32.151800 31.618200
H 4.340920 32.763400 31.376700
H 11.335600 14.400100 1.973980
H 11.141700 14.212900 1.017980
H 11.142800 14.184800 0.979892
H 11.340500 14.400700 2.016460
H 11.404400 13.771700 32.670100
H 11.414700 13.725200 32.644100
H 6.714510 24.024900 20.366300
H 6.451410 24.974300 20.048200
H 6.488300 23.158900 20.886400
H 7.447480 30.369000 2.114970
H 7.439730 30.423900 2.071760
H 7.354630 31.394800 2.010230
H 7.343050 31.451800 1.995820
H 6.904220 32.286500 2.281480
H 6.891920 32.334400 2.294590
H 7.156050 29.526000 2.502070
H 7.157870 29.484200 2.567630
H 6.563420 28.977300 3.246930
H 6.568030 28.998900 3.171450
H 6.588140 30.217700 2.948170
H 6.589020 30.189500 2.990540
H 6.681640 31.180600 2.695050
H 6.687400 31.144800 2.711840
H 6.207220 32.835100 2.888030
H 6.113730 31.872200 3.141150
H 6.118550 31.850100 3.134750
H 6.216930 32.805400 2.856050
H 16.353900 3.982010 6.821140
H 15.807300 4.010080 7.699860
H 16.747100 4.058520 8.506170
H 15.773400 4.052690 8.733670
H 16.261300 4.098430 9.645560
H 16.603300 0.631467 14.058600
H 12.877200 13.272900 1.380050
H 12.864000 13.266700 1.389670
H 13.744400 12.817000 1.580130
H 13.725100 12.793600 1.575520
H 14.611600 12.361100 1.780210
H 14.586200 12.320400 1.761370
H 13.322200 12.757800 0.661009
H 14.418800 12.145800 0.786122
H 13.345100 12.752700 0.665614
H 14.387400 12.132700 0.762883
H 12.010000 13.728900 1.179970
H 12.002800 13.739800 1.203820
H 12.405700 13.775600 2.118330
H 12.409300 13.793100 2.094490
H 13.276500 13.337200 2.294570
H 13.266900 13.302500 2.304180
H 15.865800 16.677500 1.012600
H 15.890900 16.696200 0.992141
H 14.339600 12.820700 2.667080
H 14.323500 12.761700 2.660250
H 11.941400 14.313300 2.808930
H 11.947500 14.284500 2.846990
H 12.798000 13.947800 3.261010
H 12.800100 13.895700 3.287040
H 13.669700 13.338300 3.218690
H 13.675800 13.401500 3.209090
H 12.611200 15.551000 19.352700
H 12.100100 16.085000 20.077500
H 13.500600 15.187700 18.966900
H 14.529900 15.092500 19.023700
H 13.317000 15.869500 19.985400
H 14.276300 15.640200 19.820900
H 14.982100 15.958700 20.453600
H 15.423300 15.290700 19.507600
H 15.941400 15.729500 20.289100
H 12.104100 16.646600 20.947100
H 13.063500 16.417300 20.782600
H 14.728600 16.506500 21.250900
H 14.022800 16.188000 20.618100
H 13.769200 16.735800 21.415400
H 15.945500 16.291000 21.158800
H 15.434400 16.825000 21.883600
H 14.438700 16.017200 31.212800
H 14.284200 16.734300 30.482300
H 14.287400 16.749300 30.473200
H 14.454500 16.030700 31.199400
H 12.956300 12.598000 32.050100
H 12.927900 12.637700 32.043300
H 12.058200 13.195100 32.111700
H 12.078500 13.144400 32.102100
H 12.461100 13.230900 33.026200
H 12.477900 13.208700 33.016600
H 13.780400 12.248800 32.483400
H 13.812900 12.232500 32.502200
H 15.075000 16.705900 32.023000
H 14.854500 15.756400 32.114000
H 14.829400 15.742700 32.131300
H 15.380300 16.000000 32.971900
H 15.351800 15.984400 32.991800
H 15.089100 16.722700 32.008200
H 16.249600 17.658300 1.123770
H 16.233700 17.636400 1.142640
H 16.357000 18.604100 0.795991
H 16.360100 18.628700 0.780470
H 12.365700 21.890800 20.235700
H 12.371300 21.884500 20.196300
H 12.622300 17.085300 21.728700
H 13.515700 17.283600 22.212600
H 14.545000 17.188300 22.269300
H 12.984600 21.564500 20.998700
H 12.980600 21.547100 20.962200
H 13.761700 21.706400 21.622800
H 13.771300 21.734600 21.649800
H 14.505200 22.319500 22.001000
H 14.805600 17.219100 31.187800
H 14.398000 17.719600 30.129900
H 14.407500 17.702000 30.135700
H 14.775400 18.660900 30.265700
H 14.756600 18.681800 30.261500
H 14.802400 17.201800 31.198500
H 15.048000 18.165000 31.090200
H 15.040200 18.185400 31.081900
H 15.289400 19.354000 30.837600
H 15.267200 19.378000 30.832800
H 15.607300 17.192600 32.722800
H 15.593200 17.173400 32.739200
H 15.320600 17.669200 31.914700
H 15.838800 18.136700 32.630900
H 15.841900 18.158900 32.616900
H 15.323800 17.689000 31.902300
H 15.558400 18.655300 31.796500
H 15.566200 18.632500 31.806400
H 15.811800 19.595800 31.698100
H 15.793000 19.621500 31.690700
H 16.202500 19.321300 32.616600
H 16.193000 19.347300 32.605300
H 12.097000 22.628000 19.530200
H 12.845500 23.021800 20.073100
H 12.205100 23.573600 19.167000
H 13.179700 23.940700 19.852900
H 13.158600 23.948300 19.864300
H 12.231200 23.578400 19.142500
H 12.859300 23.014100 20.049600
H 12.080400 22.626200 19.565200
H 12.706400 24.479200 19.147600
H 12.737900 24.481200 19.136900
H 13.942000 24.326900 20.372300
H 13.923700 24.343900 20.372300
H 13.481400 25.094300 19.515100
H 13.450100 25.100200 19.512400
H 14.236800 25.270300 20.163500
H 14.262400 25.253500 20.175700
H 13.297700 22.490900 20.789900
H 14.515000 22.355600 22.014500
H 13.621500 23.400300 20.569000
H 13.610700 23.417400 20.581100
H 15.016300 23.261200 21.995100
H 14.062800 22.886500 21.297800
H 14.375900 23.813000 21.089000
H 14.383800 23.786500 21.088300
H 14.063300 22.859900 21.285000
H 15.011900 23.222200 21.995500
H 13.301100 22.473700 20.765600
H 14.855700 24.944000 20.926500
H 14.871700 24.916200 20.941600
H 15.141000 24.208600 21.596900
H 15.146100 24.172700 21.607700
H 14.670800 27.455800 22.621400
H 14.605300 27.460700 22.523200
H 15.139900 27.635400 23.392400
H 15.188300 27.662000 23.494000
H 16.814300 31.364100 14.863900
H 16.475400 32.303000 14.589400
H 14.274700 27.770700 21.718300
H 14.210200 29.509100 20.731700
H 14.025100 28.580000 20.970700
H 14.106100 28.522300 21.026600
H 14.614900 28.961400 21.767000
H 14.606300 29.488500 21.581000
H 14.637400 28.604700 22.047800
H 14.197200 27.806400 21.636800
H 14.135000 29.574000 20.703300
H 14.841400 29.933700 21.710000
H 15.046500 30.286800 21.992000
H 14.559000 30.466900 20.912600
H 14.497400 30.522200 20.906300
H 15.059200 31.138900 21.520800
H 15.015400 31.170600 21.525200
H 15.077600 29.403000 22.458800
H 14.897300 28.428100 22.564400
H 15.406200 28.867200 23.304800
H 15.108800 28.519200 22.925600
H 15.549000 29.317500 23.336500
H 15.688500 28.334000 24.102300
H 15.657900 28.283700 24.011300
H 15.123800 29.400500 22.507400
H 15.632600 29.839600 23.247800
H 15.517900 30.201300 22.869800
H 16.130200 30.226000 23.946900
H 16.141500 30.278700 23.988200
H 15.972900 31.030200 23.296500
H 15.958100 30.999600 23.280700
H 15.350200 30.372800 22.450400
H 15.550000 31.345300 22.394400
H 15.576700 31.345100 22.393400
H 16.020300 29.232000 24.214300
H 16.037400 29.291800 24.283100
H 13.595900 28.917100 27.708600
H 13.505400 29.499600 26.857500
H 14.637800 30.885900 25.965600
H 13.886800 30.220200 26.219600
H 14.386000 29.757400 27.255100
H 14.952200 30.450500 26.809100
H 15.266600 30.015100 27.652700
H 15.557400 31.318200 26.163700
H 15.832800 30.708200 27.206700
H 16.399000 31.401400 26.760700
H 14.700400 29.322000 28.098600
H 14.134100 28.628800 28.544600
H 14.975800 28.712000 29.141700
H 15.895300 29.144300 29.339700
H 15.581000 29.579700 28.496200
H 16.646400 29.810000 29.085800
H 16.147200 30.272900 28.050200
H 17.266800 3.976010 6.332980
H 17.037400 4.023180 7.549910
H 18.011100 4.029020 7.322420
H 18.301400 3.993680 6.366160
H 19.180400 4.030280 6.911800
H 19.668300 4.076020 7.823700
H 17.720900 4.064350 8.278680
H 17.430600 4.099690 9.234940
H 18.694600 4.070190 8.051190
H 18.404300 4.105530 9.007450
H 19.634400 4.118630 8.857510
H 18.174900 4.152700 10.224400
H 17.140400 4.135030 10.191200
H 19.087800 4.146700 9.736220
H 18.006700 1.348860 12.827400
H 18.906100 0.994488 12.457000
H 17.163800 1.215980 13.413600
H 19.971800 2.273010 23.523000
H 20.005800 2.246150 23.497200
H 20.744600 2.933700 23.266400
H 20.713100 2.956840 23.289400
H 21.318500 3.754690 23.527800
H 21.292700 3.774410 23.548900
H 18.788800 1.954560 25.103800
H 18.816800 1.923140 25.072500
H 19.300200 1.876260 24.158300
H 19.267400 1.906150 24.187100
H 19.688600 2.681050 24.658400
H 19.473100 2.677410 25.087800
H 20.129500 3.431680 25.103100
H 20.109700 3.455960 25.129700
H 20.067600 2.838920 24.300100
H 19.386900 2.930610 25.578600
H 20.411400 3.206400 24.209500
H 19.535000 3.270180 25.890800
H 20.191300 4.024440 25.906100
H 20.530900 4.230860 25.601000
H 20.724000 3.593180 24.315400
H 20.785800 4.185950 25.118400
H 20.832600 3.981300 24.680800
H 21.573800 4.489120 24.211300
H 21.555400 4.506650 24.232000
H 21.430700 4.957350 25.155600
H 21.442100 4.940220 25.133700
H 18.664100 2.405270 26.027400
H 18.685100 2.374240 25.994900
H 18.926800 3.137510 26.710500
H 18.940400 3.108670 26.678400
H 19.506400 3.955070 26.970000
H 19.808100 3.705510 26.049800
H 19.514400 3.929660 26.939800
H 20.253100 4.617210 26.709000
H 20.247700 4.638900 26.736300
H 20.958700 4.987100 26.047900
H 20.952000 5.005760 26.072200
H 20.251000 16.099800 0.854227
H 20.269100 16.061000 0.860526
H 19.253100 15.948000 0.624189
H 19.269300 15.926300 0.628298
H 18.535600 14.737800 30.721700
H 18.535400 14.777500 30.701200
H 20.271500 14.366000 29.800800
H 20.266000 14.404500 29.770800
H 19.270900 14.446500 30.053700
H 19.266600 14.491700 30.026400
H 20.266400 14.799400 30.701900
H 20.266800 14.818700 30.681000
H 19.401500 15.005100 31.146200
H 19.398400 14.985300 31.162400
H 21.269400 14.517700 30.030800
H 21.265800 14.539300 30.003100
H 21.998200 14.859800 30.660800
H 21.997200 14.861100 30.682100
H 21.129200 15.047000 31.142600
H 21.132900 15.046300 31.126000
H 18.268300 15.185200 31.614500
H 18.262700 15.161700 31.625900
H 18.525300 15.604700 32.523900
H 18.536900 15.605700 32.521600
H 20.256100 15.666300 32.504200
H 20.268300 15.646900 32.501400
H 20.267600 15.232800 31.591200
H 20.261200 15.232900 31.603000
H 19.393300 15.418800 32.063500
H 19.402200 15.419200 32.056400
H 21.986900 15.728000 32.484400
H 21.251600 16.019200 33.152400
H 21.999700 15.688000 32.481200
H 22.266800 15.280300 31.567900
H 22.259800 15.304100 31.580200
H 21.133600 15.460400 32.036200
H 21.268500 15.973800 33.156000
H 21.124100 15.480400 32.043700
H 19.832000 30.980400 13.206900
H 18.112200 32.990700 13.230100
H 19.621000 32.798900 12.401600
H 19.959900 31.860000 12.676100
H 18.919300 32.440200 13.017100
H 18.428700 30.263100 14.438000
H 17.529300 30.617400 14.808500
H 18.323200 31.172300 14.035400
H 19.271500 30.395900 13.851800
H 17.410500 32.632000 13.845600
H 17.516000 31.722800 14.248300
H 18.217700 32.081500 13.632700
H 19.024800 31.531000 13.419800
H 17.157700 29.388200 18.335300
H 17.439000 30.383900 18.299100
H 17.757400 28.807900 19.852900
H 17.644500 29.551000 19.193400
H 17.137300 28.479800 18.831300
H 17.383300 27.902000 19.654400
H 18.131400 29.713700 20.051500
H 18.018600 30.456800 19.392000
H 17.905800 31.199900 18.732400
H 18.505500 30.619600 20.250100
H 18.433100 31.617800 19.519200
H 18.879600 31.525400 20.448700
H 18.244200 28.970600 20.711100
H 18.357100 28.227500 21.370600
H 17.829800 27.809700 20.583800
H 18.823900 29.043600 21.804000
H 18.618300 29.876500 20.909700
H 19.105200 30.039200 21.767800
H 19.125600 30.947600 21.271700
H 16.937200 31.113100 27.596800
H 17.027800 30.530600 28.447800
H 23.578300 5.075850 11.175100
H 23.728800 4.381580 10.129400
H 23.733200 4.360910 10.174800
H 22.904000 4.446650 10.788600
H 22.903300 4.466880 10.748300
H 23.999600 5.038460 10.833100
H 25.549600 5.196370 10.126800
H 25.555100 5.195580 10.087700
H 24.701600 4.635320 9.932530
H 25.151400 5.799380 11.133600
H 24.912800 5.445460 10.812200
H 24.477100 5.170180 10.747100
H 24.699400 4.648310 9.887620
H 26.066600 5.876770 10.676000
H 26.050100 5.893710 10.705500
H 22.455000 5.516380 12.417700
H 23.357300 5.288340 11.557600
H 23.353800 5.610710 11.989600
H 22.474300 5.513910 12.397400
H 22.436100 4.869590 11.609600
H 22.444100 4.881340 11.578500
H 23.628100 5.945220 12.261200
H 24.270500 5.695340 11.536700
H 24.252600 5.705050 11.561600
H 23.807800 1.330780 14.815000
H 23.801800 1.397410 14.803800
H 25.687200 1.724730 14.255900
H 25.688800 1.775600 14.259600
H 24.706800 1.788400 14.582400
H 24.705200 1.847980 14.574300
H 24.854900 0.872140 14.415400
H 25.348800 0.783837 14.243900
H 26.486200 1.156840 13.923000
H 26.489100 1.199660 13.944100
H 27.618000 1.668410 18.137200
H 26.545000 1.194490 18.537000
H 26.510400 1.245990 18.541000
H 26.797400 2.162060 18.530400
H 26.753400 2.215960 18.547700
H 27.585700 1.733850 18.165000
H 24.955900 1.630880 19.200900
H 25.006500 1.600460 19.221200
H 25.790800 2.178270 18.926900
H 25.841500 2.137190 18.927200
H 25.611700 0.953451 18.867600
H 25.649500 0.913688 18.882400
H 24.516100 0.695695 19.333600
H 24.472500 0.720451 19.296300
H 24.028100 6.239910 12.376100
H 22.955500 6.213730 12.996400
H 22.985800 6.195090 12.985700
H 23.841500 6.742370 13.185800
H 23.803600 6.774780 13.190600
H 24.541300 6.352220 12.240300
H 25.637600 6.923800 12.325100
H 25.601200 6.963440 12.334600
H 24.771900 7.049190 12.948400
H 24.812100 7.009090 12.944000
H 24.926900 6.334240 11.948100
H 25.183600 6.102340 11.515800
H 26.069000 6.540510 11.513600
H 26.096800 6.509340 11.494900
H 23.615700 9.415820 22.503900
H 25.517100 8.800070 22.576500
H 24.500400 8.887990 22.402100
H 26.393300 9.175620 22.980300
H 23.091400 11.145500 23.360000
H 24.046400 10.385900 23.143600
H 23.099900 10.242100 22.854500
H 24.746600 9.708870 22.917400
H 25.693000 9.852690 23.206400
H 24.292500 11.206800 23.658800
H 24.992800 10.529800 23.432600
H 25.238900 11.350600 23.947900
H 26.894200 9.914010 23.505200
H 25.939200 10.673600 23.721700
H 26.885600 10.817400 24.010800
H 25.345500 8.919070 31.141900
H 26.404500 8.313010 30.925200
H 26.875700 9.022990 30.337200
H 25.990700 9.425950 30.570300
H 23.335700 10.634800 31.269500
H 23.806900 11.344800 30.681600
H 24.220700 10.231900 31.036400
H 24.865900 10.738800 30.464800
H 25.105700 9.828920 30.803400
H 25.750900 10.335800 30.231800
H 25.573800 11.464800 29.752500
H 26.396100 10.842700 29.660200
H 26.872600 9.948920 29.874200
H 23.815300 8.815140 31.946600
H 24.460500 9.322030 31.375000
H 24.637600 8.193010 31.854300
H 25.585300 8.009220 31.480400
H 23.338800 9.708920 31.732500
H 23.592300 11.883900 23.885000
H 24.468400 12.259400 24.288800
H 25.485100 12.171500 24.463200
H 26.369800 11.643700 24.361400
H 27.439900 14.794300 27.719400
H 26.397600 14.246600 27.332700
H 27.017200 14.974100 27.452400
H 26.351900 14.233400 27.358800
H 25.975400 15.047000 26.829800
H 25.938500 15.031500 26.845000
H 27.708700 15.741700 27.546100
H 26.837400 15.863700 27.032600
H 27.682400 15.714800 27.546100
H 27.110800 16.341800 27.014600
H 26.017700 16.033500 26.518900
H 27.502600 16.604400 27.126200
H 25.992300 16.012600 26.519100
H 26.842100 15.394300 27.187900
H 27.121900 13.832300 27.922700
H 27.171100 13.846800 27.892800
H 24.626100 11.648600 30.126300
H 26.499000 16.913900 26.468400
H 26.513000 16.941800 26.483100
H 27.322800 17.494000 26.706400
H 27.328700 17.528600 26.732200
H 23.520300 31.144000 14.568800
H 23.534600 31.080100 14.540900
H 24.320600 30.568100 14.253300
H 24.333600 30.512200 14.208000
H 25.313900 30.448500 13.881500
H 25.304200 30.495700 13.938700
H 26.207500 30.946200 13.709200
H 26.213000 30.906200 13.648900
H 23.231000 33.025500 14.891300
H 23.131000 32.000000 14.791000
H 23.117700 32.069200 14.800600
H 24.070700 32.197000 14.511500
H 24.112700 32.771500 14.571600
H 23.220800 33.095700 14.886600
H 25.746900 33.099000 14.100300
H 25.154400 31.471500 14.097600
H 24.672000 31.453100 14.220000
H 24.262500 31.795700 14.412700
H 25.004700 32.447400 14.256500
H 25.010400 32.394000 14.231900
H 25.611700 31.650100 13.940400
H 25.896600 32.123200 13.941400
H 24.409100 33.137900 14.523500
H 26.788600 31.799000 13.626300
H 25.950100 32.591000 13.952400
H 26.889700 32.787900 13.672900
H 26.891600 32.825500 13.712300
H 26.789700 31.762400 13.572500
H 25.781400 30.887100 18.520900
H 25.787800 30.842800 18.556800
H 26.743900 30.924800 18.141800
H 26.743700 30.867700 18.160000
H 27.578700 31.404400 17.866100
H 27.578800 31.472200 17.867800
H 27.166100 33.119600 18.207800
H 26.923100 32.149600 18.201100
H 26.935600 32.091200 18.204800
H 26.040200 31.810400 18.550200
H 26.024400 31.857100 18.527600
H 27.188000 33.058800 18.198200
H 26.292600 32.778000 18.543600
H 26.267400 32.827100 18.534300
H 24.967200 31.336500 18.950100
H 24.949000 31.369300 18.903700
H 24.501700 32.216400 19.234400
H 24.469900 32.242000 19.187500
H 25.397100 32.497200 18.889000
H 25.368700 32.534500 18.860900
H 28.083400 0.788513 17.852900
H 28.064800 0.861109 17.881200
H 32.481600 9.551970 27.637400
H 32.532300 9.501570 27.614100
H 32.478500 9.527930 27.629400
H 33.091700 10.288800 26.849500
H 33.086900 10.260700 26.836500
H 32.316700 10.674100 27.275900
H 32.853400 11.232000 26.618000
H 32.854400 11.209400 26.624500
H 32.297600 10.699000 27.266400
H 33.113100 10.265600 26.830100
H 32.293100 10.720200 27.269200
H 32.855500 11.206800 26.610100
H 31.299900 11.126500 27.864400
H 31.313800 11.063100 27.891400
H 31.284300 11.139100 27.854500
H 31.779000 10.138900 27.927300
H 31.732900 10.208400 27.920400
H 31.739700 10.191100 27.922700
H 31.256200 12.094700 27.457300
H 31.261500 12.026400 27.516100
H 31.276900 12.083300 27.469900
H 32.376700 13.118200 26.154800
H 32.336900 13.097000 26.213300
H 32.392700 13.099000 26.157300
H 32.057900 11.617900 27.070300
H 32.054800 11.663300 27.037600
H 32.595600 12.153200 26.418900
H 32.624100 12.152900 26.383700
H 32.615100 12.175100 26.386400
H 31.656100 12.819100 26.835100
H 31.676900 12.805300 26.845100
H 31.635900 12.770900 26.901800
H 32.066200 11.645100 27.040000
H 27.977500 16.689100 27.372700
H 28.347600 16.455500 27.639700
H 27.862200 14.825200 27.965900
H 28.088600 13.954800 28.359900
H 28.904300 14.541500 28.609000
H 28.865800 14.515700 28.623800
H 28.042000 13.935600 28.385700
H 28.306500 15.141600 28.077500
H 29.372500 15.417000 28.573000
H 29.399700 15.449900 28.573300
H 29.426300 16.398100 28.247100
H 28.527400 15.565900 28.059600
H 29.441900 16.436400 28.262300
H 28.575300 16.089100 27.904200
H 32.409200 17.825400 23.707200
H 32.389200 17.807700 23.723600
H 32.123700 18.694400 24.101900
H 32.541800 19.030100 23.965800
H 32.736000 19.479800 24.012300
H 32.744600 19.996400 24.124200
H 30.659600 18.037600 24.652500
H 30.633400 18.010300 24.659600
H 31.457600 17.650300 24.146900
H 31.480000 17.672600 24.137400
H 31.682800 18.638900 24.295800
H 30.137300 18.791200 25.124100
H 30.167600 18.822600 25.114500
H 31.245800 18.795800 24.569900
H 31.026600 19.213900 24.784400
H 30.102400 19.783800 25.416100
H 30.136000 19.817300 25.399600
H 30.980300 19.682500 24.948200
H 31.229400 20.180200 24.942900
H 31.592600 20.467900 24.858500
H 32.470500 20.366600 24.390600
H 31.858100 19.581200 24.480200
H 31.885600 19.605200 24.454300
H 30.573200 20.755200 25.431500
H 30.537900 20.722100 25.457400
H 31.362100 21.384900 25.201500
H 31.327100 21.354700 25.236800
H 32.088400 20.571400 24.612800
H 33.082900 21.152000 24.300900
H 33.111700 21.172700 24.256200
H 32.291200 21.537700 24.771300
H 32.258700 21.512000 24.813500
H 29.012900 17.196200 27.733400
H 28.242900 17.597300 27.169400
H 28.246300 17.636600 27.199400
H 29.019700 17.236800 27.759400
H 30.387800 31.283500 14.704200
H 30.399100 31.299700 14.710700
H 31.132500 31.063600 14.019300
H 31.121800 31.045800 14.014100
H 31.415200 30.609400 14.864600
H 31.423300 30.619800 14.866900
H 32.822800 29.995200 14.063900
H 32.828600 30.004800 14.062600
H 32.021700 30.589600 13.782100
H 32.013100 30.574300 13.779700
H 32.271400 30.090400 14.888500
H 32.265700 30.084100 14.889500
H 33.029300 29.052200 16.718100
H 33.029300 29.062400 16.726000
H 30.083100 30.882300 16.639700
H 30.091500 30.886100 16.643100
H 31.151400 30.261900 16.540700
H 31.157000 30.261500 16.540300
H 30.007600 31.223700 15.665300
H 30.018100 31.234800 15.671100
H 30.866100 30.705400 15.692800
H 30.858000 30.698300 15.690200
H 32.005000 29.732100 16.562000
H 32.001900 29.736500 16.565700
H 32.559000 29.647600 15.740100
H 32.562300 29.646600 15.736100
H 31.708500 30.173000 15.715100
H 31.714200 30.176000 15.714400
H 32.295900 29.288300 17.409500
H 32.295200 29.300100 17.416200
H 30.594200 30.350800 17.366300
H 30.599800 30.347100 17.366200
H 31.403900 29.771700 17.650600
H 31.406600 29.762300 17.646800
H 28.062300 32.382600 17.772400
H 28.069100 32.309200 17.753600
H 8.239900 5.660080 13.189100
H 8.379050 5.328030 14.159800
H 8.707080 5.497450 15.126900
H 8.326920 6.404640 12.475100
H 8.616780 7.362200 12.209100
H 9.031820 8.276190 12.462300
H 9.460840 8.901690 13.166800
H 8.705440 6.802110 13.311000
H 8.731510 6.263800 14.153300
H 9.083960 7.199570 14.146900
H 9.057890 7.737880 13.304600
H 9.110030 6.661260 14.989200
H 9.462480 7.597040 14.982800
H 9.436410 8.135340 14.140500
H 9.788870 9.071120 14.134000
H 9.136100 6.122960 15.831500
H 9.551140 7.036940 16.084700
H 9.928020 8.739060 15.104600
H 9.841010 7.994500 15.818600
H 1.897180 11.051200 7.452920
H 0.902571 10.997600 7.364520
H 3.123800 10.997100 7.621070
H 1.410120 10.007300 7.910030
H 2.402310 10.301300 7.879980
H 1.392050 11.801100 7.025860
H 0.886926 12.551100 6.598800
H 1.881530 12.604700 6.687210
H 2.386660 11.854700 7.114270
H 3.105730 12.790800 6.736910
H 3.381270 11.908300 7.202680
H 1.373990 13.594900 6.141690
H 2.371020 13.408200 6.348560
H 32.229400 10.811400 7.314820
H 32.964100 10.194100 7.703170
H 32.211400 12.605200 6.430650
H 31.953900 11.693900 6.849050
H 32.948500 11.747500 6.937460
H 32.932800 13.301000 6.171740
H 27.332900 12.897700 18.024200
H 27.281700 12.917500 17.991400
H 27.394100 14.542800 18.579400
H 27.393500 14.518600 18.631500
H 27.648400 13.844300 17.910500
H 27.673000 13.835600 17.956700
H 27.733600 15.456500 18.564000
H 26.874500 13.437300 18.788700
H 26.905000 13.396100 18.824400
H 26.774000 14.263600 19.373900
H 26.773100 14.314500 19.329100
H 27.004400 15.314000 19.467700
H 26.975000 15.267800 19.525600
H 27.454200 16.139500 19.238800
H 27.506500 16.168000 19.167300
H 26.021000 22.062500 10.829100
H 26.804100 21.857100 12.657900
H 26.226200 21.776600 11.802700
H 27.599800 22.282600 13.165400
H 26.833800 23.349500 9.531980
H 27.634000 24.005800 9.555980
H 27.616900 23.144200 11.360700
H 26.243300 22.638200 9.997980
H 27.225300 23.246800 10.446300
H 26.818900 22.603300 11.094900
H 27.210500 22.500700 12.009300
H 28.523700 13.374100 16.491800
H 28.571900 13.407600 16.539400
H 29.025900 14.228100 16.191500
H 29.051000 14.279400 16.252600
H 29.257200 15.227600 16.330100
H 29.252000 15.283500 16.404300
H 29.155700 16.104800 16.870500
H 27.943000 12.901900 17.187900
H 27.885300 12.894400 17.150600
H 28.015100 14.771000 17.829600
H 28.636200 14.999300 17.079800
H 28.632500 15.028500 17.146700
H 28.269400 14.072600 17.160700
H 28.292500 14.090600 17.214300
H 28.013000 14.773600 17.889100
H 28.353100 15.711500 17.821600
H 28.381900 15.697800 17.748700
H 28.748600 16.624600 17.667800
H 28.693200 16.649400 17.754000
H 28.083100 16.645200 18.590400
H 28.144900 16.647700 18.508600
H 29.121100 16.151000 16.953900
H 27.760800 15.469500 18.498500
H 28.023300 23.787700 10.712100
H 28.429700 24.431200 10.063600
H 29.007600 24.511800 10.918700
H 28.400100 22.938900 13.189400
H 28.008500 23.041500 12.275100
H 28.990500 23.650200 12.723400
H 28.414900 23.685100 11.626500
H 29.212800 24.225900 11.892300
H 30.656600 17.701900 3.799220
H 30.421000 18.219300 2.934030
H 29.370800 19.868700 2.514200
H 29.457300 19.558500 3.460890
H 29.018600 20.073000 4.197670
H 29.982400 18.733800 3.670810
H 29.950400 19.012400 2.463680
H 28.837500 20.558700 3.072050
H 28.493500 20.897700 3.987750
H 30.594000 17.598900 4.827420
H 30.068900 18.423600 4.617510
H 30.250000 17.937800 5.743130
H 28.666500 20.277300 5.881140
H 29.543800 19.248300 4.407590
H 29.105100 19.762800 5.144360
H 29.630300 18.938100 5.354280
H 28.430900 20.794600 5.015950
H 29.716800 18.627900 6.300980
H 29.137200 19.484200 6.351490
H 12.265700 2.627690 18.274500
H 12.237800 2.592660 18.293900
H 12.425700 3.505040 17.842200
H 12.463000 3.540100 17.827000
H 12.774100 4.478290 17.898200
H 12.812600 4.512500 17.889600
H 13.221000 5.284330 18.445700
H 13.189700 5.251620 18.446700
H 12.260900 1.985630 19.132200
H 12.273800 2.019750 19.112400
H 12.488800 1.846580 20.132400
H 12.484900 1.879170 20.116100
H 12.899500 4.105250 18.817400
H 12.922200 4.138240 18.810400
H 12.648800 3.195840 19.002900
H 12.631400 3.162440 19.015300
H 12.756900 2.789400 19.934500
H 12.758300 2.821570 19.923600
H 13.031800 3.763980 19.731200
H 13.025000 3.732210 19.736700
H 13.418600 4.301980 20.458100
H 13.414800 4.332120 20.459500
H 13.578600 5.648780 19.346200
H 13.561200 5.617830 19.340900
H 13.305200 4.706380 19.538700
H 13.293100 4.675020 19.538800
H 13.789000 5.478790 20.341200
H 13.789800 5.508200 20.349900
H 12.842600 2.243620 21.016700
H 12.860300 2.212790 21.026600
H 13.141400 3.389720 20.652000
H 13.150500 3.359170 20.655900
H 13.250900 3.015450 21.572800
H 13.275900 2.986130 21.575200
H 13.600600 3.987850 21.635400
H 13.624300 3.959370 21.631100
H 13.812100 4.871750 21.179400
H 13.797800 4.900260 21.187800
H 14.951400 9.445170 20.700600
H 14.237300 9.424540 21.713300
H 14.955100 8.728340 21.711500
H 15.881400 7.914150 21.589900
H 15.585300 8.661840 20.938000
H 13.394900 10.325900 21.595800
H 14.149700 10.054200 20.941400
H 14.500200 7.535450 24.028800
H 15.255000 7.263830 23.374300
H 15.760500 7.402450 22.481600
H 13.064600 8.927850 24.032200
H 13.607100 9.491050 22.486800
H 13.694800 8.861350 23.258700
H 14.412600 8.165150 23.256900
H 14.324900 8.794850 22.485100
H 15.042700 8.098650 22.483400
H 12.768400 9.675540 23.380300
H 12.889300 10.187200 22.488500
H 13.698500 8.144530 24.269600
H 22.232500 12.724200 7.537290
H 22.267800 12.728700 7.584960
H 21.533700 13.133800 8.181940
H 21.563900 13.132700 8.227590
H 22.257200 14.029300 8.728640
H 22.241000 14.012900 8.694380
H 21.301700 13.830200 8.946190
H 21.281500 13.828400 8.906950
H 21.543500 14.621900 9.518040
H 21.551600 14.634500 9.548200
H 22.249500 15.301700 9.851470
H 22.246600 15.330000 9.872320
H 23.190700 12.709300 7.145710
H 23.225000 12.726600 7.190490
H 24.178800 13.126800 7.149870
H 24.151600 13.093200 7.112150
H 23.695800 13.677600 7.830490
H 23.676000 13.645400 7.796980
H 24.873800 13.822300 7.474000
H 24.857600 13.773000 7.445580
H 22.716500 13.460800 8.009550
H 22.740300 13.478500 8.048030
H 23.212700 14.228400 8.511100
H 23.200500 14.197500 8.481810
H 22.725000 14.749600 9.166640
H 22.729600 14.779200 9.191710
H 23.684500 14.934100 8.954070
H 23.685100 14.978300 8.974170
H 25.123700 14.626600 8.076010
H 25.119600 14.566500 8.056670
H 24.168200 14.427500 8.293550
H 24.160100 14.382000 8.269240
H 24.157600 15.728100 9.437240
H 24.168500 15.670700 9.426330
H 24.861500 15.324200 8.794610
H 24.867400 15.261100 8.781680
H 23.210300 15.685600 9.817910
H 23.200400 15.730300 9.831710
950
Atoms. Timestep: 50000
H 3.184140 0.707409 4.149770
H 3.178420 0.805185 4.113740
H 3.333770 1.699790 3.895740