9000
Atoms. Timestep: 0
O 4.042940 3.704280 1.243760
O 4.938120 3.797760 1.381320
O 4.028340 4.330690 1.982080
O 3.505180 5.790340 1.224740
O 4.089550 5.364470 1.984280
O 2.708640 5.852080 1.789140
O 5.577410 4.281300 0.822128
O 3.500810 4.903640 2.573690
O 2.564300 6.290470 0.889917
O 4.514970 7.380770 31.180600
O 4.380810 8.123450 30.573100
O 5.103450 8.733140 30.480500
O 2.343570 6.917050 32.780500
O 2.118990 7.531620 32.061500
O 3.785690 7.466450 32.555800
O 4.599350 7.548960 32.094000
O 2.952550 7.881650 32.341100
O 7.238240 3.124860 2.284470
O 6.942000 3.155820 1.283860
O 6.425050 3.911630 0.946492
O 7.578780 4.044240 0.835008
O 7.914750 3.683530 1.857870
O 8.007790 4.605960 1.528880
O 8.019880 4.231510 31.137300
O 7.341200 2.768970 31.975400
O 7.421900 3.526460 31.368500
O 7.529590 3.296310 32.792300
O 6.653060 8.479110 29.016000
O 6.730350 8.155830 29.920300
O 6.112030 8.734470 30.329000
N 4.951970 1.557000 2.487350
N 5.364810 0.680502 2.509910
N 5.431580 1.428670 3.977440
N 4.744230 1.016930 3.228080
N 5.889220 1.454830 3.008520
N 0.626848 2.609040 2.962070
N 5.365240 2.547070 2.495890
N 5.676960 2.522850 3.447720
N 4.785440 0.824836 4.385760
N 5.919100 1.169620 4.768120
N 1.174760 1.873840 6.159520
N 2.132350 1.326450 7.758450
N 2.194670 1.380480 6.474880
N 1.403420 0.921380 6.365640
N 2.565800 0.720667 7.158090
N 3.013810 1.051270 8.052350
N 3.185620 1.896340 27.411300
N 2.873400 2.172180 26.468400
N 2.940970 1.256010 26.783100
N 2.679390 3.966240 26.578000
N 3.069980 3.093180 26.268700
N 2.171320 4.665680 27.004900
N 2.358090 5.568940 26.841700
N 3.591290 1.346710 28.135000
N 2.014380 5.819970 28.611100
N 1.751360 5.686430 29.493300
N 2.462250 5.565360 27.841700
N 4.510170 6.021080 28.380800
N 0.973928 1.904340 31.132100
N 4.117000 0.863311 30.549500
N 2.464170 0.714874 30.897400
N 4.987490 0.720786 30.131600
N 5.425460 0.641314 31.268100
N 5.168960 4.085390 31.293700
N 4.103770 4.753160 31.197100
N 3.337060 4.723050 30.600700
N 3.729480 5.610020 30.512400
N 5.084090 5.027730 31.266700
N 4.412290 5.662110 29.737400
N 1.679880 0.996468 31.536100
N 0.736189 1.215190 31.687900
N 4.663190 1.071390 31.985300
N 4.604170 2.082120 31.937900
N 4.617440 3.035790 32.049800
N 5.486990 3.494080 31.979400
N 1.998240 9.135240 2.343680
N 1.485350 9.894950 1.979460
N 1.039850 11.366600 2.317310
N 0.688049 11.084900 1.408740
N 1.433270 10.566800 2.692020
N 0.886784 7.097700 10.671100
N 2.962050 7.709690 22.303200
N 2.266040 8.088520 21.713600
N 3.801300 7.389680 22.655900
N 2.064250 9.133370 23.996900
N 3.106230 8.387320 23.915200
N 3.699990 8.169630 23.175200
N 1.152200 10.667500 23.935100
N 2.053350 10.107100 23.856500
N 3.002710 10.172700 23.995000
N 4.933870 10.058200 24.098200
N 3.912380 6.479830 25.846000
N 1.118610 8.441690 25.314700
N 1.316510 8.755540 24.475000
N 1.568850 9.407470 25.361300
N 2.411620 9.440740 25.782100
N 2.452260 8.836030 25.048100
N 2.740920 7.967090 25.936100
N 3.171490 9.245200 24.401100
N 1.185140 9.780890 24.378500
N 0.940323 10.066900 25.487600
N 1.528250 10.527200 24.802800
N 2.337440 9.767250 24.869400
N 2.110450 11.115400 24.391200
N 3.515490 11.064300 25.686000
N 2.726110 10.566800 25.193100
N 3.687420 10.664600 24.854800
N 4.080470 9.849780 24.388400
N 5.152840 10.363400 25.024700
N 1.471690 7.809230 26.620800
N 1.450920 7.548540 27.672100
N 3.850550 6.774600 26.746500
N 4.100930 6.487460 27.605400
N 0.909320 8.680910 26.230500
N 1.748840 9.510830 27.550600
N 1.960210 8.607220 26.011200
N 1.626010 8.708380 26.960400
N 2.583260 7.910650 27.246500
N 3.279840 8.758310 26.059600
N 2.635470 9.060030 26.912900
N 3.400200 8.319700 26.884100
N 0.704775 10.920900 27.581100
N 2.393120 9.945360 26.804600
N 2.079910 11.048300 26.556300
N 1.586260 10.463100 27.089500
N 3.198380 10.143500 27.413800
N 3.457090 9.905720 26.552800
N 2.783830 10.602700 26.142800
N 2.596220 10.996500 27.449700
N 3.546040 11.044200 26.759500
N 5.183490 10.332800 25.970000
N 4.240250 10.418000 26.503600
N 1.782780 6.655080 29.470600
N 4.060660 6.871780 28.539300
N 3.751320 6.116460 29.117800
N 1.572760 9.439440 28.709400
N 1.140420 8.936040 27.994800
N 1.993890 8.332970 27.907000
N 1.021510 8.073230 28.354600
N 2.696900 9.403260 27.756400
N 2.180030 10.127600 29.103800
N 1.117930 10.576100 28.568700
N 1.197660 9.876410 29.494900
N 1.811670 11.003700 29.117700
N 2.397590 10.348600 28.165200
N 1.695160 11.113800 27.832800
N 0.946946 10.014800 27.844200
N 1.433120 6.218790 30.589100
N 2.142820 7.440010 29.954100
N 0.927046 6.936790 30.256700
N 1.259490 7.889310 30.078200
N 0.874923 9.893910 30.369000
N 1.379330 10.935400 32.106300
N 1.837820 11.194400 32.886600
N 2.312770 11.887000 0.795024
N 1.866030 15.971200 19.909400
N 1.177300 16.347100 19.304700
N 0.843709 15.615000 20.270900
N 2.814730 16.251200 20.022300
N 3.362730 15.325600 19.084400
N 2.903570 15.252000 19.917000
N 3.749210 16.837100 19.865500
N 3.806800 15.869800 19.765300
N 2.095850 11.761700 22.225800
N 1.675420 16.430400 20.693900
N 2.540010 16.197800 20.953500
N 4.461470 16.738900 21.939200
N 2.007020 12.798700 23.795800
N 1.634800 12.185900 22.894800
N 0.799604 12.516700 23.309900
N 1.557630 11.812100 23.828600
N 1.524260 13.794900 24.084100
N 0.663473 13.397100 23.961300
N 3.478970 14.616700 23.286500
N 4.031510 15.153000 22.658500
N 3.461860 16.222700 23.328300
N 3.708320 16.552300 22.479900
N 4.557650 15.768700 23.292400
N 4.990690 16.274900 22.639100
N 1.220920 12.552800 24.349500
N 1.515050 13.169400 24.948100
N 2.063680 12.034100 24.537900
N 1.142850 11.511100 24.637500
N 2.543820 13.051000 24.536400
N 3.088320 12.360200 24.270000
N 3.316980 12.601700 25.155800
N 2.448350 12.312900 25.488000
N 4.166270 13.042600 25.278100
N 2.882670 11.554200 25.023700
N 4.736310 12.588800 24.612700
N 5.204360 13.244100 25.676000
N 0.877797 14.012000 24.769700
N 1.112520 13.881200 25.714700
N 1.938110 13.997300 25.092300
N 1.638850 14.841800 25.868300
N 3.142610 14.744500 24.202100
N 2.490340 13.390000 25.531400
N 4.929390 13.507300 24.778500
N 2.625120 16.032400 25.381900
N 3.360880 16.325800 24.766500
N 1.591690 13.095200 25.947400
N 1.829140 11.979500 26.293100
N 1.454130 12.384400 27.492200
N 2.205600 11.852200 27.170400
N 2.405120 12.802600 26.386200
N 1.744160 13.173100 26.960500
N 1.236030 11.518800 27.000800
N 2.719800 11.678400 26.130900
N 3.218570 11.882800 27.039400
N 3.620240 12.161300 26.227300
N 0.664852 13.607200 27.741900
N 0.728749 14.705600 26.113900
N 2.072880 14.032000 26.145000
N 0.730488 13.476800 26.530100
N 1.279010 14.136100 27.014300
N 4.001190 14.707800 27.547300
N 2.431380 13.802700 27.155400
N 4.671430 13.396900 26.477500
N 1.511430 16.688000 27.088400
N 3.642120 15.566100 27.585100
N 3.153960 16.408200 26.086800
N 3.010160 15.915300 27.004200
N 2.482180 16.543200 27.454400
N 4.691710 15.313700 27.284900
N 5.187330 15.845900 26.671100
N 5.654210 16.568400 27.328500
N 2.140040 12.091600 28.421300
N 1.234270 11.731000 28.343900
N 0.745921 12.678200 28.063100
N 2.499930 11.972300 29.265600
N 1.303470 14.874600 28.710200
N 1.702520 14.384400 27.826600
N 1.029300 15.083000 27.809500
N 5.259360 14.916700 29.321100
N 2.182450 15.179200 28.754700
N 1.736460 16.752900 28.011900
N 1.640420 16.820100 29.082300
N 4.179600 15.286300 29.350300
N 4.218510 15.241400 28.405900
N 2.894140 16.049400 28.162700
N 3.394930 15.590100 28.807700
N 2.458460 16.047600 29.100900
N 5.375720 15.132900 28.211200
N 5.714330 16.624800 28.749400
N 5.958800 15.837400 27.927300
N 6.000180 15.488400 29.107700
N 2.099140 12.524900 29.930900
N 3.016200 12.574400 30.158900
N 3.426390 12.286400 30.969900
N 4.367520 12.431300 30.834100
N 1.747690 16.084300 29.709800
N 2.147780 16.246700 30.930400
N 1.147190 16.860900 30.630700
N 3.468310 15.664700 29.859600
N 2.581770 15.750200 30.222300
N 4.173390 15.138500 30.877800
N 5.843060 15.130300 30.036200
N 5.188240 16.844600 29.799700
N 5.016440 15.093000 30.536100
N 5.854940 16.165800 29.824400
N 3.249370 11.896300 31.821400
N 3.067560 11.864600 32.801100
N 4.287780 12.225000 31.783900
N 5.050540 11.666200 31.473800
N 5.355830 12.234100 32.148600
N 6.036220 12.837000 32.058000
N 3.927960 16.639700 31.616400
N 2.695380 16.123500 31.661000
N 3.168440 16.686400 32.239500
N 4.380260 15.802700 31.567600
N 1.174990 18.300400 1.259970
N 2.492720 18.662000 1.053780
N 3.140520 19.382900 0.921161
N 0.771618 17.189700 19.586700
N 1.221810 17.746400 21.933100
N 1.780930 19.816700 22.055500
N 0.940925 21.593200 21.994300
N 1.505190 20.683300 22.085000
N 4.111970 22.092700 21.021800
N 5.758720 21.706700 22.042200
N 4.709860 21.144500 21.779500
N 5.299490 21.630300 21.202100
N 1.132550 17.589400 23.299000
N 1.665370 18.328200 23.913700
N 1.659640 18.174200 22.620300
N 3.335030 17.093400 23.609200
N 2.124910 18.847700 23.082100
N 0.992937 20.116300 22.738900
N 1.904690 20.000600 23.304300
N 1.015100 18.917600 22.511900
N 2.551890 19.491000 22.537200
N 3.069840 20.109400 23.698700
N 1.418290 21.753900 22.893600
N 1.785020 20.901000 23.082500
N 0.852006 21.955700 23.662600
N 0.658113 21.146900 23.211500
N 3.901980 21.646600 22.557800
N 3.577230 22.087300 23.361000
N 3.973340 20.736900 22.335900
N 0.743293 17.560600 24.211300
N 2.113370 17.976600 24.736100
N 0.860406 18.622000 24.412600
N 0.626473 17.577000 25.238200
N 2.578820 17.182300 25.887600
N 3.704480 17.232100 24.513900
N 2.753630 18.365800 25.284000
N 1.476950 18.706000 25.141900
N 1.924700 19.139900 24.257500
N 2.232650 20.187800 24.185900
N 1.153460 19.681200 24.590000
N 1.082130 19.477400 25.529000
N 1.863850 20.074300 25.170800
N 0.664634 20.445700 25.075900
N 1.456740 20.805000 24.673200
N 2.334790 20.837500 25.548800
N 1.221700 22.251000 25.248100
N 0.678656 21.507100 25.227300
N 4.024170 21.743400 24.200300
N 3.416570 20.586700 24.450500
N 2.611250 21.081900 24.595600
N 3.210540 22.158400 24.579500
N 1.394970 17.603000 26.617200
N 2.272950 18.094600 26.268500
N 3.689310 17.905400 27.357300
N 3.470790 17.868100 26.438800
N 4.318160 18.279000 26.490000
N 5.717720 17.712100 27.440200
N 4.461530 17.337500 26.832700
N 4.819340 17.969800 27.457100
N 1.711920 18.727600 27.382200
N 6.014160 19.455400 27.508500
N 1.063220 21.116600 26.026900
N 0.951755 22.040600 27.257700
N 0.854017 17.328800 29.114900
N 0.892820 18.627800 29.071500
N 1.132540 18.286400 27.975400
N 0.952130 17.370700 27.997000
N 2.575660 18.292800 29.144500
N 3.389240 17.957700 28.576700
N 2.839170 18.167500 27.843800
N 4.228010 17.444900 28.217800
N 3.883630 17.571200 29.267700
N 4.495910 18.196800 28.760400
N 5.829730 18.497900 29.180700
N 5.053840 17.044600 27.953100
N 5.862310 17.570200 29.079500
N 4.825710 16.934500 28.923600
N 1.754760 18.709900 29.436700
N 2.015690 18.713900 28.309700
N 1.590110 20.253000 29.003300
N 2.951470 20.176600 28.722400
N 2.487780 19.362200 28.847500
N 1.766900 21.185200 29.084300
N 3.822540 20.915700 29.076400
N 3.422440 20.871800 28.228800
N 4.744390 20.849100 28.683500
N 1.329260 18.333600 30.379500
N 1.968790 18.296900 31.125600
N 2.314590 18.316200 30.238500
N 0.641285 17.438500 30.072900
N 3.427450 17.634600 30.814000
N 3.087170 17.744700 29.972600
N 1.247530 19.731700 29.731000
N 1.681650 19.156100 30.300400
N 4.657900 20.316100 30.495700
N 1.269310 20.789000 29.817500
N 4.118440 20.938200 31.032400
N 4.898570 20.749900 29.641600
N 1.366770 18.492900 32.919700
N 3.799670 18.011300 31.647800
N 5.544320 18.323200 32.688000
N 1.907870 19.319800 33.034200
N 4.073620 18.915600 31.612300
N 4.920300 18.808200 32.099700
N 0.972436 24.076700 1.106530
N 0.857073 23.098700 1.034910
N 5.427830 22.593800 1.687940
N 6.014190 23.118600 1.113420
N 2.482250 25.114100 1.442580
N 2.964210 25.713700 0.794401
N 3.775940 25.416600 1.130530
N 2.326540 26.904900 1.527420
N 1.314580 27.258700 0.729686
N 2.698370 26.027500 1.726760
N 3.629120 26.394800 1.087820
N 2.639190 27.720100 2.234030
N 4.416310 26.905800 0.989643
N 5.703040 23.260500 3.428030
N 5.690030 23.021500 2.509580
N 1.243380 24.850700 2.812880
N 5.258270 24.869100 3.306860
N 5.937500 24.428900 3.874480
N 5.866580 25.389100 2.798530
N 1.580280 26.448500 4.072150
N 2.248200 26.784900 2.465100
N 1.774420 26.814300 3.245840
N 0.925091 25.947700 3.435200
N 5.870190 27.005600 3.876020
N 0.899998 25.897200 4.367510
N 5.373080 27.472900 4.613250
N 4.806150 27.492100 5.559190
N 5.482340 25.099200 16.833300
N 1.818360 27.732000 15.734600
N 3.610300 23.938000 17.174400
N 4.325600 23.357200 16.994700
N 5.080130 23.615500 17.520900
N 3.260750 24.691900 17.616800
N 3.323300 25.458300 18.100300
N 5.604730 24.322200 17.228300
N 3.256510 26.451000 17.928000
N 3.465310 27.447400 18.266000
N 5.860870 26.552300 17.381200
N 5.099550 26.440800 17.943400
N 5.461590 27.267200 18.150300
N 5.854390 23.489800 19.942700
N 4.841850 23.201100 20.025300
N 5.616770 22.660100 20.426400
N 3.141650 25.287900 20.236700
N 3.547150 24.490500 20.481400
N 4.161820 25.226700 19.985600
N 5.597670 24.324600 19.608000
N 4.924300 25.293200 19.497700
N 4.794460 24.198300 20.125500
N 3.160990 26.712100 18.855900
N 3.102630 26.218400 20.196700
N 3.907920 26.097900 19.665900
N 5.153690 26.179700 19.227300
N 4.907420 27.156100 19.950600
N 5.665170 27.689400 19.836200
N 2.380220 23.475700 21.708000
N 1.791170 22.642600 21.955000
N 4.183090 23.603300 20.576600
N 3.229530 23.860200 21.144900
N 2.945620 22.686600 21.866200
N 3.551370 22.935000 21.170900
N 4.758780 22.773100 20.933700
N 2.146020 25.412200 21.118700
N 2.353120 25.454000 22.094500
N 2.662880 24.600100 20.959100
N 4.256860 25.889400 21.715300
N 5.316410 25.052000 21.530200
N 4.515020 25.070300 22.157400
N 5.220950 24.314800 22.144600
N 3.119360 27.443100 20.587800
N 2.850950 27.251300 22.266800
N 3.557950 26.932300 21.265300
N 2.797380 26.330900 22.056500
N 4.297850 27.035600 20.717300
N 5.528710 26.025500 22.103100
N 5.753550 26.806400 21.621200
N 5.042520 26.332900 21.191000
N 3.059870 22.818600 22.847700
N 3.760080 23.365000 23.131200
N 2.569150 23.639400 23.010200
N 4.497390 23.827500 23.559600
N 4.820380 23.565400 22.611300
N 5.349440 23.476400 23.889200
N 5.651710 23.211200 22.344900
N 2.552940 24.517900 22.712600
N 3.648010 24.698400 23.153900
N 3.950590 25.782100 23.216100
N 2.843220 25.255500 23.246000
N 3.461670 25.516500 22.443700
N 4.165420 24.241000 22.503100
N 5.844180 25.409900 24.017400
N 0.737219 26.958200 22.762800
N 1.075730 26.123300 23.113500
N 1.276770 27.646600 23.184800
N 2.023610 27.617600 22.466500
N 4.774210 26.046200 22.741100
N 3.598500 22.923000 24.982300
N 4.099650 24.116900 24.804800
N 3.172290 23.796100 24.874500
N 5.966750 22.989800 24.402200
N 3.941720 24.803500 25.451100
N 3.572170 25.599200 24.981500
N 3.481070 26.286600 25.591800
N 2.913790 27.098700 25.512800
N 5.758490 26.269200 24.467700
N 1.102680 24.010900 27.046800
N 5.847840 24.385200 26.152600
N 0.909732 27.407000 26.844500
N 1.842060 27.663500 26.607000
N 2.782190 27.016200 26.421200
N 1.029370 23.766600 28.007000
N 1.013930 22.819500 27.889400
N 1.500500 27.466300 32.053700
N 3.869990 27.406000 33.001700
N 2.040130 28.919200 1.105200
N 2.358540 28.587500 2.221070
N 1.008750 28.831800 0.666358
N 2.960500 28.825700 0.992225
N 4.537300 28.655000 0.988017
N 4.380180 29.222100 1.734140
N 5.347400 29.048800 1.439900
N 5.165250 28.560700 2.247280
N 1.685480 29.728400 1.473610
N 2.131740 30.439100 1.893370
N 0.941875 30.884100 0.978775
N 1.671020 31.298600 1.395770
N 2.516180 29.556700 1.986710
N 2.593270 31.219000 1.135970
N 3.345960 30.543300 1.751420
N 3.610010 29.700500 2.359200
N 4.241600 30.390500 1.519250
N 5.574590 30.076300 1.039890
N 5.166530 29.911800 1.878120
N 5.190880 30.988700 1.746770
N 4.852800 31.260200 0.715757
N 5.874260 31.087500 0.904672
N 0.824613 31.940500 1.187280
N 0.758807 31.533700 2.060470
N 1.951140 32.969800 1.126600
N 2.048630 32.105200 0.865207
N 1.190200 32.618600 0.620493
N 3.028920 31.990900 0.769196
N 3.102450 31.373300 2.203940
N 2.643460 32.127800 1.828570
N 3.615140 32.063200 1.536120
N 5.622860 32.010900 1.238970
N 4.521480 31.484500 2.144890
N 5.724020 32.265600 2.145000
N 4.609200 32.088900 1.147980
N 4.817990 32.592400 2.127810
N 5.958390 27.966900 3.950640
N 5.675120 28.329300 3.012650
N 4.815660 28.838400 3.482910
N 5.625420 29.316900 2.871270
N 4.495460 29.419600 2.657040
N 1.186900 31.077700 3.053930
N 3.685140 30.228500 3.237670
N 2.988180 30.257900 3.953460
N 3.443800 31.175000 3.517950
N 4.163130 29.811900 4.136840
N 4.257640 30.429100 2.471050
N 4.892950 29.789800 3.530970
N 5.485060 30.263000 2.750220
N 5.011350 30.990900 3.095160
N 5.666090 31.229900 2.490740
N 4.369670 30.737600 3.911750
N 1.191360 31.982400 2.806640
N 1.813180 31.547400 3.744330
N 1.851000 32.470500 3.672770
N 3.896020 31.907400 2.766530
N 4.485240 32.654300 3.265590
N 4.451200 31.685800 3.587290
N 5.097720 32.021400 2.918370
N 3.634140 29.067500 5.614110
N 4.430140 29.430400 5.278980
N 5.260250 28.945300 5.559030
N 4.450570 28.774200 4.346080
N 5.445160 28.418100 4.821850
N 4.292080 28.157900 5.033210
N 4.030050 31.049600 5.529050
N 3.703700 30.549300 4.575690
N 3.605850 30.166700 5.581110
N 4.539960 30.222100 5.904570
N 5.447360 29.969000 5.433340
N 5.483810 30.945800 5.064900
N 1.941700 33.090800 4.367860
N 0.982374 33.123700 4.294160
N 4.038950 32.801700 4.269700
N 3.108160 31.671600 4.994240
N 3.717360 31.714500 4.281600
N 4.058460 33.113400 5.169280
N 2.590540 31.905500 4.239310
N 4.031510 32.165900 5.159020
N 5.590000 31.844900 4.858460
N 5.940730 32.703400 4.704860
N 4.890570 31.401600 5.702160
N 4.948400 32.295500 5.442010
N 3.643140 29.650600 6.415110
N 5.320290 30.602800 6.176280
N 5.397980 29.577200 6.311660
N 0.825736 30.253200 10.493800
N 1.525820 30.077900 11.153900
N 1.242260 29.630300 13.133400
N 0.943678 31.233000 12.518400
N 1.588340 29.033900 14.202500
N 0.667641 28.445600 14.505100
N 2.398550 29.438000 14.244200
N 2.942580 28.644800 14.286500
N 3.745230 28.633500 14.764200
N 0.664634 30.548200 14.850000
N 1.346790 29.947400 14.019600
N 0.852385 30.707300 13.329600
N 1.332350 30.948900 14.210100
N 0.997454 31.407300 14.952900
N 1.771300 28.716900 15.251500
N 1.374680 28.376500 16.309000
N 2.027240 29.092500 16.130600
N 0.892821 28.074100 15.364600
N 2.818650 28.688000 16.776400
N 3.898030 28.827700 15.673000
N 3.433740 27.975000 15.505500
N 2.620820 28.230700 15.956000
N 3.560740 28.051100 16.492900
N 1.779510 29.664600 15.254300
N 1.344760 29.765600 16.471600
N 1.037930 30.159800 15.682500
N 2.184900 30.222300 15.968500
N 1.629010 30.984500 15.942200
N 0.823340 31.314400 16.606100
N 2.527380 31.174100 15.772000
N 2.081110 31.807700 16.315800
N 1.294050 32.080100 15.694100
N 2.033460 28.050300 18.325500
N 1.452520 29.189800 17.182200
N 0.755246 28.072300 17.021700
N 0.842873 28.842000 17.759100
N 1.507910 27.822600 17.597600
N 2.863890 28.064300 17.844100
N 0.688504 29.887100 17.488100
N 1.109230 30.750400 17.306500
N 2.664800 32.212500 17.025500
N 3.613730 28.832700 19.710700
N 2.871630 29.422300 19.849900
N 2.959400 28.306000 20.178900
N 3.255940 30.104000 19.260400
N 4.142840 29.836300 19.447600
N 3.868540 28.308700 21.908600
N 4.573590 29.255300 21.663900
N 5.420370 29.332800 21.210500
N 4.693000 28.309400 21.436600
N 3.517090 28.940000 23.666600
N 4.396290 28.492400 23.418700
N 4.670150 28.449100 22.451500
N 2.753850 27.847200 26.866200
N 2.344660 31.759000 26.863300
N 3.130330 32.266300 27.101000
N 3.160100 33.104500 27.609800
N 2.275120 31.524700 28.643000
N 2.097990 31.793600 27.782300
N 3.941030 31.766200 29.454100
N 3.007660 31.485100 29.277000
N 3.854880 32.994300 28.306500
N 4.775830 31.476300 29.155300
N 3.539400 30.167900 31.052100
N 2.670190 30.720200 30.976200
N 4.366140 30.558700 30.867300
N 4.670040 31.246200 30.057100
N 5.712090 30.501600 30.900700
N 1.381900 31.861400 30.994100
N 2.164720 32.311500 30.711500
N 3.255780 33.156100 30.352300
N 2.877560 32.181900 30.060400
N 3.121960 32.033400 30.993900
N 4.120170 32.006500 30.564200
N 5.889660 32.410900 31.118800
N 4.470780 31.436400 31.264900
N 5.388200 31.430300 30.611800
N 4.984000 32.414500 30.490700
N 0.707482 27.903600 31.669300
N 0.825818 27.972200 32.820100
N 2.188400 27.997200 31.647000
N 2.768100 29.504400 32.593800
N 3.376250 28.272300 32.891700
N 2.539100 28.623900 32.248900
N 4.147830 29.045700 32.769300
N 5.010340 28.950300 31.915300
N 5.566510 28.988100 32.908100
N 0.986192 30.447100 32.670900
N 1.286100 31.211700 31.892000
N 3.260100 31.235700 31.472400
N 3.635590 29.878700 32.493800
N 3.046020 30.461600 32.091200
N 3.952270 30.586500 31.784300
N 4.586950 29.708400 32.224800
N 5.657070 29.600800 32.226500
N 5.076180 30.428900 31.681400
N 1.388880 32.658400 31.544900
N 2.604610 32.775600 32.911700
N 3.978380 32.124100 32.984300
N 3.484880 32.782400 32.509100
N 5.181790 32.090900 32.828500
N 4.690320 32.711200 32.341100
N 7.746620 1.474450 2.096880
N 6.743590 0.857973 1.947150
N 7.353950 0.965041 0.857908
N 6.430930 1.225860 1.124760
N 8.557790 1.876050 2.272490
N 8.536500 4.570490 2.422990
N 7.699290 2.409590 3.091530
N 7.382330 1.800640 3.757170
N 6.496460 1.513620 4.090560
N 7.398400 0.802925 3.926570
N 6.802970 1.100920 2.950290
N 6.373170 2.265710 2.866080
N 8.215850 1.397570 3.049320
N 8.525400 1.640900 3.905230
N 7.789550 3.362270 3.395290
N 8.471690 3.686830 2.864320
N 9.272550 3.426180 3.762220
N 8.207680 2.511660 3.988570
N 10.148600 3.611160 3.524640
N 11.280500 3.219950 3.358380
N 10.427300 2.733470 3.370030
N 11.148700 4.159620 3.687100
N 6.805190 2.125800 5.931880
N 7.095720 1.210690 5.798730
N 10.492200 1.118380 4.927630
N 10.592100 1.738310 5.626750
N 7.461770 2.790210 5.818380
N 9.058370 3.312780 5.774990
N 8.851800 2.976650 4.519870
N 8.311560 2.884290 5.436360
N 11.172000 4.667390 5.408710
N 9.221360 1.335890 7.508700
N 8.305570 1.149360 7.727250
N 10.052500 1.800390 7.596450
N 9.627630 2.549260 7.170980
N 9.685170 2.777760 6.279000
N 7.512740 6.902630 1.123470
N 8.064180 6.542470 1.862000
N 8.179040 6.406370 2.782390
N 10.705400 10.989600 3.652840
N 10.545200 11.180100 2.710990
N 11.115100 10.188200 3.930980
N 9.199150 8.041890 28.834000
N 10.121000 8.095120 29.002800
N 10.824900 10.910000 29.497900
N 7.708960 9.354890 31.103600
N 10.652200 7.866430 29.784200
N 9.457610 10.165500 31.266000
N 8.512090 9.940980 31.101600
N 8.377210 6.568810 31.751900
N 8.715640 6.312200 32.570900
N 7.858680 7.348620 32.019000
N 8.232870 6.945520 33.092400
N 8.569920 7.970180 32.063700
N 8.241080 8.645410 31.493000
N 9.916610 9.447980 31.650500
N 10.545000 9.241920 32.406800
N 10.757400 10.062500 32.887700
N 9.937750 12.823600 1.281220
N 10.540600 12.220900 0.827423
N 11.078200 13.031300 1.029730
N 10.498600 12.141200 2.372230
N 8.359170 14.924100 1.161590
N 9.009370 14.521000 1.944620
N 9.718820 13.656700 1.655270
N 10.636400 13.600900 1.762380
N 10.285700 14.316900 2.405660
N 8.386960 15.232000 2.061630
N 9.433880 15.335800 1.969450
N 10.600100 15.457500 1.994280
N 10.991100 15.263700 1.163230
N 11.127200 16.195200 2.186980
N 10.350400 12.996700 2.582830
N 10.601100 13.251400 3.641280
N 11.055400 13.672900 2.718060
N 10.305700 14.148400 3.607370
N 11.002400 14.729400 2.876640
N 10.778900 15.014400 3.743360
N 11.316900 13.954800 3.598430
N 9.978270 15.165100 2.739260
N 10.993100 16.591600 4.213370
N 10.926600 13.666000 4.466680
N 11.089400 16.656200 5.117130
N 9.580270 14.975600 6.933050
N 10.640500 15.152200 6.414210
N 9.980910 15.806100 6.706660
N 11.098100 13.171400 17.869100
N 10.825500 13.291800 16.929600
N 11.447200 13.012600 18.761200
N 10.414400 13.979500 19.006600
N 10.703300 14.855600 19.193100
N 11.173100 13.621700 19.427600
N 11.150400 16.308900 19.433800
N 11.151100 16.656700 20.310200
N 11.426000 15.256200 20.934800
N 10.655800 16.658400 21.196000
N 11.368300 16.094200 21.445400
N 11.464400 14.680600 23.982900
N 10.969900 15.573500 24.105200
N 10.423500 16.071700 24.742700
N 7.225200 14.685900 27.389900
N 6.196900 14.736900 27.744800
N 7.900810 14.560100 26.751400
N 8.777270 14.670500 27.193300
N 7.828210 16.495800 26.486800
N 6.995110 16.711400 27.088300
N 8.207730 16.721600 27.373100
N 6.845890 14.169400 28.173400
N 9.404210 14.856800 27.894700
N 9.728640 15.047000 28.827300
N 7.590740 13.205100 33.046200
N 9.863400 12.293100 32.750000
N 11.317600 12.404600 31.679300
N 10.544600 11.853700 32.203500
N 10.753400 12.779100 32.472300
N 6.788620 13.445900 32.592600
N 6.174140 13.750900 31.855600
N 9.487130 14.335400 32.955200
N 8.384980 13.713600 32.856400
N 8.659980 14.794400 32.751400
N 9.302150 13.438800 32.769600
N 10.321500 13.719200 33.019800
N 11.204100 13.315500 31.620500
N 10.630700 14.558800 32.592200
N 10.370500 13.594100 31.963600
N 11.131400 14.383700 31.816700
N 11.139200 15.550300 32.103600
N 7.747320 22.153700 1.818770
N 7.626690 21.401300 17.006600
N 6.730400 21.694400 17.122400
N 8.348000 21.804800 17.486100
N 10.930300 22.258100 19.749400
N 11.413700 17.150200 22.184400
N 10.500300 17.429700 22.301200
N 9.544790 19.723700 20.911900
N 9.339850 20.417700 21.488000
N 8.551710 20.285700 22.046600
N 7.669420 21.755700 21.415000
N 6.510070 21.652900 20.940300
N 6.704430 21.630600 21.912700
N 11.361100 21.703100 20.519300
N 10.716900 21.551400 21.164600
N 11.266800 22.309800 21.310900
N 10.653800 18.370500 22.541800
N 10.286700 17.363200 23.593400
N 9.317440 20.126300 22.594100
N 9.252720 20.190200 23.864300
N 9.475530 21.215500 23.451100
N 9.193170 21.158000 22.553300
N 10.351700 20.937300 23.537000
N 8.842480 17.313000 24.800800
N 9.268140 18.139200 25.073100
N 9.566480 17.220900 24.188400
N 10.658000 16.946300 24.345100
N 9.594770 19.040800 25.308300
N 9.100000 19.461900 24.548500
N 10.044700 20.451600 24.272200
N 6.463080 17.462300 26.917200
N 7.041370 17.930000 27.683100
N 7.131920 17.102400 26.185300
N 7.556850 18.401700 26.990800
N 7.997230 17.508200 26.881800
N 6.053500 18.835500 28.281200
N 11.414300 17.386500 33.033600
N 6.867180 22.571400 1.185190
N 6.479590 22.390000 2.071000
N 8.631170 22.527900 1.646650
N 8.303660 24.055600 0.776077
N 8.585530 23.465500 1.508510
N 7.272150 22.724200 2.459400
N 6.635230 23.452400 3.411200
N 6.915530 24.306300 3.748350
N 6.782810 25.585900 3.106150
N 7.579090 25.275600 3.498190
N 8.229100 25.957800 3.492770
N 8.590490 26.542800 4.148940
N 7.965990 27.563400 3.993240
N 8.536360 27.341500 4.759860
N 9.515490 22.715800 16.609700
N 9.338000 24.301900 16.804400
N 11.317700 25.602500 16.513600
N 9.711310 24.932300 16.172000
N 7.209150 22.984100 18.507400
N 6.278460 22.861300 18.355800
N 7.357950 23.701900 17.881600
N 6.827020 22.532000 17.655100
N 8.923680 23.472200 16.909300
N 8.990700 22.513500 17.657700
N 9.965500 22.568300 17.457300
N 7.486990 24.617200 18.028300
N 7.852790 25.845500 18.283800
N 10.943700 24.854700 18.390900
N 11.252200 24.165100 17.876800
N 6.569370 27.368700 18.340300
N 6.096200 27.600100 17.569600
N 6.718840 26.760900 16.997600
N 7.478530 27.369600 17.140800
N 11.166000 26.077600 18.378000
N 6.131120 23.653100 18.900800
N 6.720440 23.231400 19.513800
N 7.602290 23.033600 20.264700
N 7.323620 23.950100 18.810200
N 11.197200 23.988600 18.876400
N 11.121600 23.275900 19.981300
N 10.388900 23.448400 19.436300
N 9.862330 23.017800 20.188700
N 11.384200 23.020100 18.910000
N 7.833210 24.673500 20.463600
N 6.608090 24.303000 19.374500
N 8.306270 25.215800 18.810200
N 8.519780 25.183200 19.803500
N 8.010550 24.454500 19.504600
N 10.956700 25.496200 19.281000
N 11.348200 24.767700 20.356800
N 6.719370 26.097300 20.307500
N 7.603180 26.252100 19.160800
N 6.667350 26.155700 19.388200
N 7.029800 27.396000 19.185200
N 6.659040 22.951900 21.960500
N 6.223630 23.899600 21.701400
N 7.560700 23.702400 20.909200
N 7.245080 23.679500 21.857500
N 7.051650 22.409900 21.152800
N 8.147780 22.474300 21.045200
N 10.618700 22.680400 20.666400
N 11.155500 23.803400 22.220300
N 6.963780 24.470200 21.217600
N 6.114620 24.754000 22.066500
N 6.886470 25.351900 21.001800
N 6.151820 25.902900 21.115800
N 8.533650 25.373500 21.589700
N 8.101200 25.509300 20.734600
N 11.233800 24.883300 21.297600
N 10.588400 24.631100 21.993100
N 10.932400 26.567600 21.312400
N 7.480950 23.424200 22.789500
N 6.372390 23.948300 23.996900
N 6.162540 22.481200 22.617800
N 8.377220 22.983200 22.947100
N 9.242340 23.386900 23.047900
N 9.880620 23.649300 22.324300
N 10.339100 22.963300 22.801000
N 11.181900 22.739700 22.478900
N 6.418970 24.796500 23.566700
N 8.291520 25.110900 22.496700
N 8.863250 25.835700 22.539500
N 7.386240 26.793900 22.770900
N 7.530230 27.714200 22.978200
N 8.030860 26.179000 22.335800
N 6.846980 23.346300 24.601900
N 7.777530 25.413800 25.852400
N 6.683970 26.127500 24.430300
N 7.594420 26.420000 24.642600
N 7.606080 26.316900 25.572800
N 6.676350 24.856900 26.237500
N 7.514870 24.927800 26.660500
N 11.465000 27.121000 27.183000
N 6.506250 22.797000 32.893800
N 8.641270 24.011900 32.429800
N 7.962980 24.672300 32.290600
N 7.152940 28.838400 1.640280
N 6.156960 28.633000 2.197240
N 6.649300 27.879800 1.833130
N 8.009450 28.823900 2.027320
N 10.033000 29.490700 1.076840
N 10.537900 29.450600 1.913150
N 6.950220 29.780800 1.396800
N 6.803840 30.980500 1.211680
N 6.356060 30.585700 1.947310
N 6.184340 29.554600 2.148540
N 7.474060 30.127200 0.646566
N 7.898980 29.661700 1.539190
N 7.976170 30.664000 1.228900
N 8.842730 30.747200 1.534840
N 9.644760 29.801900 2.130100
N 6.294660 31.585500 1.829530
N 7.147680 32.135400 1.251070
N 7.808160 33.140400 1.644700
N 6.338200 32.611100 1.211910
N 8.073710 31.677300 1.211350
N 8.744580 31.588100 1.983590
N 8.093020 32.316400 2.137380
N 7.147290 28.391400 2.461500
N 6.833210 29.503500 4.112540
N 7.263230 28.112500 3.554320
N 6.443740 27.818500 3.013920
N 7.941970 28.835900 3.187660
N 7.961510 28.729900 4.124440
N 8.071630 27.991700 2.837890
N 9.162810 29.195900 4.140340
N 7.506560 29.730900 3.543480
N 7.540100 30.559600 3.184450
N 6.898950 30.488100 3.878800
N 8.987820 30.334400 2.600710
N 8.190870 30.991300 2.463980
N 8.163790 29.767100 2.590600
N 8.613470 29.624700 3.428010
N 8.534730 30.715800 3.398400
N 9.446000 30.076600 3.867460
N 6.928120 31.383900 3.684830
N 7.728780 32.951500 2.707230
N 7.743240 31.663000 2.948090