9000
Atoms. Timestep: 0
N 4.229740 1.826340 1.501380
N 5.476500 1.050450 1.547190
N 6.002220 1.933500 1.260500
N 4.273070 2.416840 0.768096
N 4.685060 1.105500 1.056230
N 5.053550 1.814960 2.154050
N 6.011240 1.540530 2.253280
N 5.642290 2.566170 2.283230
N 5.912790 3.123090 1.319570
N 3.454940 0.693636 3.100730
N 4.830730 1.642100 4.223370
N 4.420720 0.674091 3.222380
N 4.184650 0.924787 4.261760
N 5.373060 1.062020 4.730520
N 4.980680 1.737490 5.576750
N 5.757610 2.327120 5.252850
N 3.070820 3.301880 5.188130
N 3.788610 2.617770 5.421990
N 6.011200 2.891510 4.487140
N 4.866380 2.451720 4.966910
N 4.300320 3.389880 5.702730
N 5.492750 3.236010 5.172470
N 5.742090 3.928980 4.502960
N 5.098690 2.586260 6.023900
N 5.577370 4.344130 5.357670
N 4.092380 1.190590 7.346300
N 4.856530 1.583080 6.699790
N 5.850100 1.196990 7.087800
N 4.990060 0.847093 7.420850
N 4.478480 2.415280 6.999190
N 5.387820 1.025860 6.124590
N 4.114530 4.200760 7.306120
N 4.414840 3.460650 6.838980
N 5.577450 3.058040 6.763240
N 5.068100 3.765910 6.123000
N 5.652440 4.102280 7.038910
N 5.909810 3.438160 7.666800
N 4.964990 3.247310 7.634610
N 5.453870 5.252750 6.586280
N 4.788980 4.586950 6.473260
N 4.832290 4.567710 7.738960
N 3.419310 1.049660 7.957870
N 3.655010 1.943390 8.163140
N 4.432380 0.874864 8.426270
N 4.527910 1.852320 9.021190
N 5.330350 1.457240 8.102310
N 4.613820 2.049030 7.953220
N 5.494630 1.868240 9.104220
N 3.558540 3.937540 9.352050
N 3.976340 2.576010 9.370470
N 4.414460 3.810760 8.349000
N 4.479880 2.863610 8.542650
N 5.310760 3.526860 8.476070
N 5.063350 2.674010 9.302720
N 5.208030 3.715450 9.431190
N 5.389730 5.751850 9.021950
N 4.513520 4.374540 9.454390
N 5.013950 4.497450 8.659230
N 5.899510 4.392190 7.917850
N 3.645840 2.089750 11.236700
N 3.415880 4.231890 10.266900
N 3.934810 3.297830 9.961460
N 5.093340 2.728000 11.048400
N 5.166180 3.255240 10.259300
N 5.820050 2.478260 9.931790
N 1.512090 4.716450 11.293800
N 2.238180 5.397970 11.359200
N 3.415780 4.749030 11.080000
N 1.476250 0.995893 11.989000
N 2.006440 1.662910 11.572500
N 2.927430 1.879170 11.774600
N 4.476840 2.321480 11.574000
N 3.413420 4.860250 12.040900
N 2.493520 5.035210 12.207800
N 2.742840 0.691347 18.554300
N 2.336970 1.268420 19.404100
N 2.818090 2.078230 19.539600
N 3.776270 2.063550 19.232700
N 4.037550 0.638407 20.332500
N 5.149330 0.849378 18.753800
N 4.503830 1.425540 19.281400
N 5.632790 2.359680 19.237600
N 5.677500 1.611540 18.737400
N 4.376070 1.508590 20.352800
N 5.638150 0.905783 19.554000
N 1.880200 0.829052 21.269400
N 2.821650 0.961179 21.428400
N 3.068930 1.664630 22.187000
N 3.733530 0.899243 21.458400
N 5.143200 1.002180 20.544700
N 5.851660 1.621020 21.355400
N 4.854250 1.370020 21.346600
N 5.227330 0.675411 21.934700
N 3.451980 1.796270 23.041600
N 3.410770 0.809543 22.516200
N 5.083530 1.374850 23.683500
N 4.333550 2.241480 23.102700
N 5.235270 1.352570 22.697200
N 5.918880 1.985130 22.480900
N 3.691830 2.695540 23.677800
N 5.428460 4.524920 24.115800
N 4.961780 1.230120 24.866500
N 4.782970 2.068160 25.330000
N 5.186360 2.250120 24.512700
N 3.704570 3.534460 24.147000
N 5.706130 3.044720 24.407800
N 3.231690 4.338190 24.324100
N 2.761670 5.128510 24.607800
N 5.076580 5.973140 25.169400
N 5.134000 5.062810 24.874900
N 5.112840 2.034940 33.069400
N 5.641890 1.995860 32.272600
N 5.944590 1.319980 33.112800
N 5.369440 8.938870 1.245920
N 5.522590 8.318880 1.942440
N 5.669870 6.776440 5.343370
N 5.680440 8.112200 4.385660
N 5.511590 10.076500 4.752190
N 5.709250 6.186800 6.433890
N 5.496970 7.609520 8.836390
N 5.609270 6.680650 9.006510
N 6.016880 7.003460 8.184550
N 3.861130 6.844400 24.132800
N 3.488060 7.234270 24.925700
N 4.785620 6.424940 24.201500
N 4.438940 6.711280 25.075400
N 5.961930 8.897620 33.045600
N 5.880290 10.596700 32.899100
N 5.611810 10.615700 31.945000
N 5.286740 11.410800 32.493200
N 5.466590 11.667000 30.926000
N 5.713590 12.042900 31.792600
N 4.762140 12.033600 31.975700
N 2.317280 21.129300 5.245570
N 2.118690 20.771800 7.085590
N 2.416780 20.954100 6.172490
N 2.531000 22.174200 6.986230
N 2.582000 21.402600 7.552760
N 4.913290 21.762900 14.294500
N 5.503860 21.488300 15.083400
N 4.825860 20.842900 15.428900
N 5.117230 20.291700 17.926200
N 3.821350 21.407900 18.116700
N 4.217780 21.869800 17.397700
N 3.423500 21.462200 16.977700
N 4.381090 20.841600 17.615600
N 5.873080 20.541000 18.408500
N 0.901676 27.354700 4.442510
N 1.935910 23.801600 7.311560
N 1.790610 22.841100 7.039010
N 3.762620 23.953200 7.709980
N 2.757450 23.584300 7.806620
N 4.637660 23.528300 7.288790
N 5.591120 23.411900 7.297950
N 5.422150 24.259800 7.758230
N 3.414260 23.633800 8.551360
N 4.129350 23.103900 7.986940
N 5.889940 23.647900 12.682100
N 5.814080 23.759400 11.675000
N 4.153950 24.487300 12.934400
N 4.411160 24.344200 12.039400
N 5.267350 24.380700 12.430200
N 5.716300 26.907700 13.015000
N 5.887430 23.346800 14.182300
N 5.333190 22.602500 14.074700
N 4.087580 24.324900 13.875000
N 4.818190 24.779300 14.347000
N 5.712240 24.278500 14.437100
N 5.884440 26.347100 15.097800
N 2.927720 27.710500 21.420700
N 4.535840 31.358700 2.425080
N 5.121240 31.683100 1.745470
N 5.465410 32.602400 1.972220
N 5.865870 32.872600 1.015570
N 4.860760 32.587800 1.219600
N 5.409970 31.972000 0.685483
N 6.038490 31.800200 1.557790
N 5.163920 31.065800 3.070280
N 3.372950 33.037400 4.059340
N 5.734570 31.621000 2.511300
N 5.297390 33.121000 2.732170
N 3.190020 29.427300 5.095410
N 3.440630 29.099900 6.014200
N 1.447120 30.142400 5.325080
N 2.256270 29.688100 5.123720
N 5.820200 32.659000 5.922160
N 2.900720 29.274100 6.797610
N 2.751080 30.139400 7.233390
N 2.662620 30.907300 7.786690
N 4.711500 33.071600 6.529440
N 5.461320 32.471700 7.664040
N 5.884160 32.792600 6.841100
N 2.305880 31.207600 8.891340
N 1.736020 30.871800 9.590430
N 3.394900 30.289800 8.030060
N 2.918960 31.040900 9.576040
N 3.213070 30.354300 8.958210
N 5.176810 32.818600 8.504780
N 1.088190 30.194600 9.974180
N 1.235740 29.570600 10.647200
N 5.374790 30.167700 18.611500
N 1.936280 32.627400 18.556400
N 4.081050 32.466600 17.185200
N 3.339830 32.548700 18.262500
N 3.341940 31.946100 17.480600
N 4.310620 29.024400 19.813600
N 5.059750 29.318800 20.288300
N 5.716100 29.371100 18.942900
N 1.302100 30.155800 18.754100
N 1.560720 31.078100 18.933600
N 2.354670 30.620300 19.306600
N 3.978640 29.778300 20.240700
N 2.883080 31.159400 19.868100
N 4.503750 30.086800 18.983100
N 5.556030 31.001400 20.372700
N 4.674960 30.624700 20.498300
N 5.035990 30.602300 19.622700
N 5.943150 29.947000 19.923200
N 1.731810 33.087600 19.369400
N 3.742490 31.406500 20.241200
N 4.233380 31.388300 19.380000
N 4.222890 32.272900 20.473200
N 5.786360 31.561200 19.231500
N 4.579820 33.104500 19.527100
N 4.640170 32.355900 18.914800
N 4.900970 31.658500 19.951700
N 5.387900 32.547900 19.463500
N 3.946110 29.461600 22.182500
N 3.013030 28.110400 20.553500
N 3.308290 28.403900 21.929000
N 4.554230 28.660400 22.008000
N 3.765780 30.839500 22.262900
N 3.926980 31.155900 21.407400
N 2.856520 30.901400 20.942300
N 2.964250 31.178700 21.893800
N 5.847520 30.027400 21.854800
N 5.352710 29.894300 21.018200
N 4.588680 30.430400 21.641500
N 5.018840 29.691200 22.018300
N 4.707060 31.322900 21.896200
N 1.533830 32.009600 22.121400
N 1.223340 32.613900 21.328900
N 3.089340 31.815500 21.003400
N 3.464500 32.677200 21.062200
N 4.054700 32.073700 21.513700
N 4.724660 31.579000 20.861500
N 5.786570 33.032200 21.197000
N 5.940100 32.595000 22.010600
N 2.392090 29.482600 23.035100
N 2.896420 28.728500 22.748400
N 5.652370 29.552200 23.970100
N 3.769700 29.867800 23.349000
N 3.422300 30.744200 23.716500
N 2.451140 30.908200 23.681700
N 3.027530 30.206400 22.914400
N 2.955680 31.255200 22.913000
N 4.489060 29.855000 24.101800
N 5.209980 30.377400 23.472600
N 4.434610 30.800100 23.944500
N 5.779800 29.986500 22.878600
N 4.410900 30.154600 22.636200
N 5.251760 30.606200 22.391300
N 2.376790 31.877000 22.504500
N 2.944260 32.041200 23.733500
N 3.747450 31.610800 23.441500
N 3.821610 32.480000 24.120400
N 3.265670 32.589600 23.059700
N 3.949010 31.768200 22.432100
N 5.613320 32.330300 23.747600
N 4.807850 33.016300 23.859900
N 5.996150 32.263800 22.913000
N 4.127350 29.464400 24.920100
N 3.692060 30.340000 24.663800
N 5.395410 30.153800 24.660100
N 4.590620 30.634800 25.035700
N 5.599160 30.328600 25.684300
N 5.652860 31.102900 25.195100
N 3.813860 31.554300 24.379200
N 3.852620 32.327900 25.231800
N 3.833260 31.461300 25.603600
N 5.683050 31.936600 24.720300
N 4.627600 32.518500 24.668000
N 4.750060 31.555400 24.856600
N 5.046770 31.811900 25.756300
N 5.546020 33.153500 24.450100
N 5.164780 30.234300 26.558700
N 5.320310 31.019400 26.982500
N 4.275100 32.147900 26.156800
N 4.443490 29.159600 28.702800
N 5.284190 28.853100 28.514700
N 5.470180 29.170500 29.540100
N 4.536780 28.821700 29.597900
N 5.582160 29.333700 30.461800
N 5.053880 29.902100 31.006800
N 5.720320 31.928200 30.275900
N 5.894570 32.871500 31.223600
N 5.161180 30.644800 31.569000
N 6.017430 31.311100 32.854600
N 5.356070 32.954700 32.812500
N 7.685830 1.582750 1.440920
N 7.529870 2.366280 2.293880
N 6.832320 1.842710 1.878620
N 6.308440 0.647017 2.307320
N 7.569420 0.738474 1.735040
N 8.617270 1.480660 1.897030
N 9.176620 1.869110 0.885067
N 8.437990 2.334980 1.485520
N 8.264950 0.806354 1.069260
N 9.144980 0.915123 1.408050
N 10.514000 0.631381 1.835980
N 9.800970 1.163050 0.706442
N 7.600660 2.645340 1.066050
N 6.759590 2.830380 1.373690
N 7.548030 3.293210 1.953800
N 7.340640 3.735160 1.172830
N 6.456930 3.850110 1.557770
N 8.339950 3.385160 0.997417
N 7.589030 5.448840 1.831710
N 7.097670 4.642370 1.592040
N 8.744130 5.668610 1.894030
N 6.938460 1.658730 2.911870
N 6.673030 2.248370 3.676470
N 7.193950 1.428600 4.161760
N 7.155740 0.702203 2.729790
N 6.612080 3.696980 2.484490
N 6.566860 2.781990 2.519370
N 8.014380 3.991260 4.050390
N 7.794980 5.524660 3.278280
N 8.266730 4.830910 3.693470
N 11.093600 6.019100 3.605140
N 6.137290 1.739890 4.308900
N 7.204840 1.417380 5.250290
N 6.933930 2.172330 4.743560
N 6.116100 1.307370 5.277860
N 7.972230 1.952670 4.545650
N 8.096030 1.418160 5.502220
N 8.832300 1.150090 4.621490
N 9.497570 1.489100 5.139140
N 8.774930 2.062310 5.136200
N 7.975570 0.711681 4.740230
N 6.160570 2.971480 6.023260
N 6.659080 3.089340 5.181010
N 7.686730 3.506200 5.277070
N 7.583290 2.818940 4.346930
N 6.606270 3.994230 5.173120
N 9.389400 3.519000 5.548900
N 9.561540 2.630160 5.295090
N 8.425700 2.824400 4.793310
N 9.303220 3.200100 4.508120
N 8.535090 3.939350 5.069040
N 10.990300 4.047810 4.482140
N 10.166400 3.539150 4.712160
N 10.076500 3.906340 6.018960
N 7.396840 4.568350 5.952570
N 7.479330 4.344660 4.767460
N 9.634020 4.535450 5.147250
N 8.442100 4.823790 4.822920
N 8.251440 4.940970 5.911190
N 9.136610 5.235680 5.491650
N 10.185900 4.606680 4.355830
N 6.701750 1.711170 7.007600
N 7.530050 1.045270 7.100610
N 7.649020 2.038020 7.146160
N 6.422050 1.118840 6.304920
N 9.540440 1.547930 7.298690
N 8.573700 1.535000 7.228720
N 8.313320 0.979546 6.507970
N 9.246760 2.352830 6.285210
N 9.075440 1.439420 6.210280
N 10.485100 2.406690 7.218130
N 6.514160 3.476410 6.887320
N 7.501500 3.865880 6.840510
N 6.810880 3.837610 7.687960
N 6.061230 3.900180 6.061830
N 7.151560 3.410540 6.079700
N 8.109260 3.897280 6.138730
N 8.632370 2.580500 7.118150
N 9.562880 2.844580 7.284010
N 10.937400 2.951040 6.615640
N 10.089500 3.567600 7.028260
N 10.871600 4.008980 6.515120
N 9.982960 2.852340 6.317490
N 7.570170 4.948210 6.807650
N 6.690050 4.463510 6.898190
N 8.418510 4.393440 6.962550
N 9.505060 4.416740 6.834710
N 9.535830 5.444760 7.482320
N 8.847170 4.810160 7.743330
N 9.003000 4.365500 6.069680
N 10.052200 4.508930 7.665080
N 7.134390 0.839741 7.992120
N 6.432710 2.131720 8.703550
N 7.153070 1.510500 8.705410
N 7.135740 2.124330 7.909600
N 6.206840 1.695500 7.908460
N 6.609220 1.534230 9.601810
N 7.585430 1.819340 9.550630
N 6.154630 1.051370 8.795100
N 7.970970 1.497250 8.146690
N 8.007510 1.046060 9.062660
N 9.217440 2.179580 7.944270
N 8.892410 1.172220 8.221090
N 8.622050 1.906390 8.774670
N 8.491740 2.347040 9.616340
N 10.544500 2.281130 9.093070
N 10.269100 2.421590 8.187840
N 7.416960 2.471230 8.727960
N 6.795710 2.476900 9.507990
N 6.231410 3.872590 8.566410
N 8.137960 2.511670 7.881960
N 9.355050 2.698810 9.032220
N 8.268100 2.900310 8.693420
N 9.144620 3.077060 8.190050
N 8.869930 3.448810 9.399370
N 9.964620 3.576560 9.095180
N 10.114100 3.344050 7.920250
N 10.743400 3.212860 8.645840
N 9.664980 4.060900 8.372970
N 6.116270 4.248270 9.364170
N 7.137590 4.352430 8.606990
N 7.108950 5.211520 9.081510
N 6.945310 4.893320 7.909380
N 7.306980 5.750360 8.140990
N 6.058380 4.991220 8.811380
N 9.578060 5.860810 8.353050
N 8.135080 4.865340 8.557920
N 8.614250 5.620440 8.375230
N 9.290170 4.967990 8.680190
N 8.661530 4.473660 9.410610
N 8.015090 5.489280 9.285920
N 11.168600 5.832950 8.629770
N 10.523200 4.389920 8.652230
N 10.527600 4.993970 9.516590
N 10.256400 5.844620 9.216410
N 11.096400 5.990430 9.553240
N 9.403670 0.781188 10.174900
N 10.327000 0.984886 10.216600
N 10.385400 1.909730 9.981340
N 7.209030 2.924890 10.559100
N 6.323580 3.043980 10.895400
N 7.691750 2.883390 9.685380
N 7.500170 3.772360 10.101600
N 6.165040 3.361190 10.038400
N 8.899480 2.595070 10.809300
N 8.012420 2.884760 11.057100
N 8.471270 3.246630 10.273900
N 9.531290 3.693920 10.331100
N 7.833430 4.662610 9.771100
N 7.508740 4.737370 10.639500
N 6.915930 4.475410 9.843530
N 8.981150 4.501540 10.352700
N 9.738220 4.463930 9.662050
N 7.149080 2.052250 20.283900
N 6.355000 1.975670 19.741700
N 6.666990 0.723173 21.412300
N 6.086700 1.068750 22.241500
N 6.427790 2.302630 20.983700
N 6.134280 1.299230 20.519200
N 10.223800 1.229850 21.933000
N 10.289100 1.224120 20.989100
N 6.526980 2.368160 23.929500
N 6.074840 1.550760 23.770800
N 6.168800 0.709124 23.091200
N 9.228490 1.666530 22.704400
N 8.532370 0.986731 22.586500
N 10.001500 1.093030 22.862800
N 6.469890 2.896810 23.136400
N 6.299320 4.444410 23.795500
N 6.654670 0.948234 24.132200
N 6.404910 3.691610 24.400100
N 6.827960 0.751249 26.660800
N 6.702060 1.276900 27.539800
N 9.651810 2.743630 26.188800
N 9.140040 4.119890 26.972700
N 8.987150 3.357450 26.195200
N 8.192110 4.111220 26.836300
N 9.092960 3.203350 27.127400
N 8.379170 3.681500 27.723100
N 9.892400 2.460540 27.088300
N 7.667760 1.106320 27.906500
N 7.036920 0.967995 28.666400
N 6.147610 1.147500 28.278400
N 8.116710 1.603980 28.605600
N 8.855390 1.142000 29.012100
N 9.938910 1.752620 28.265600
N 7.646700 3.142010 27.999600
N 7.967660 2.933950 28.875800
N 8.305660 3.716260 29.291100
N 9.508380 2.519820 27.957500
N 7.655130 0.964038 30.360700
N 7.184430 1.819920 30.789600
N 7.037230 0.842745 31.155500
N 6.307100 1.386900 30.613100
N 6.778110 0.782291 29.584700
N 8.400400 1.470000 29.768400
N 8.123550 1.823440 30.935300
N 8.110070 0.950362 31.326400
N 8.844870 1.087640 30.501500
N 9.654220 2.120380 29.842200
N 9.079480 2.114040 30.545300
N 10.653200 0.951873 31.244800
N 10.476000 0.661633 30.195300
N 10.454100 1.720250 30.054500
N 9.873490 1.361380 30.720600
N 11.165600 1.648660 30.762500
N 6.405430 2.707420 31.080000
N 8.372750 2.867820 30.957500
N 9.464740 2.910060 30.791500
N 8.260480 3.484400 30.264300
N 6.348630 0.687116 31.963300
N 6.281160 1.632100 31.502200
N 6.681490 1.491510 32.468000
N 7.450370 1.545820 31.677500
N 6.627270 2.401600 32.209000
N 6.120550 2.366920 33.018900
N 7.322260 0.691874 32.071500
N 8.897660 0.967894 32.940400
N 8.314110 1.788130 33.158700
N 9.705230 1.072710 32.203200
N 10.040500 1.718190 31.549700
N 10.809500 1.032060 32.397700
N 6.921270 3.030580 32.887600
N 6.600060 3.288940 31.771400
N 7.623540 3.254270 32.328500
N 7.065050 4.026110 32.177800
N 9.350900 2.563900 31.666700
N 8.519950 3.192330 31.844900
N 8.158360 4.057430 32.030600
N 9.252420 2.855050 32.557700
N 8.354620 2.747680 32.878400
N 8.020450 4.016790 32.921600
N 6.841570 7.207170 1.539100
N 7.749000 7.585290 0.947109
N 7.117350 6.275250 1.695630
N 9.054580 7.209260 2.134090
N 8.495240 7.657270 1.525170
N 8.731500 6.631830 1.124370
N 8.148920 6.603670 1.850320
N 10.348400 7.173160 1.074920
N 6.594590 7.986010 1.116370
N 7.140450 9.333010 1.950180
N 6.523890 8.286270 2.031450
N 6.658580 9.210320 1.006050
N 9.543940 7.945580 1.886960
N 9.280780 8.586050 1.205090
N 8.440700 8.450950 0.777599
N 10.240000 8.727560 1.522160
N 11.049800 9.017630 2.017950
N 10.764100 7.934290 1.501800
N 6.752830 10.304500 2.275120
N 7.204200 10.165600 1.397580
N 6.312620 11.135200 2.373260
N 7.464560 11.058800 1.952720
N 7.827010 10.928700 1.066840
N 7.908550 9.898870 1.969920
N 8.700630 10.846200 1.786840
N 8.897230 10.115700 2.376850
N 9.673300 11.395600 1.809770
N 11.217600 11.249300 2.196240
N 10.794400 11.425300 1.344130
N 7.201820 6.870410 2.622920
N 7.241610 7.789970 2.875680
N 6.275110 6.597680 2.548150
N 6.089760 7.503900 2.764770
N 8.035960 7.528580 3.724800
N 8.790050 6.141040 3.456130
N 8.996260 6.909280 4.231280
N 9.082090 6.274200 2.585310
N 8.067590 6.210190 2.722530
N 9.636920 6.482570 3.563970
N 11.191600 7.505100 2.975880
N 10.295700 6.060860 4.107260
N 10.649600 6.750090 3.197520
N 7.583090 8.561190 2.509320
N 6.215300 7.926780 3.583130
N 7.402380 9.550710 2.884840
N 8.280630 9.242270 2.671600
N 8.535440 9.121750 3.778080
N 8.270610 8.353850 3.256600
N 8.873410 7.912610 4.176490
N 9.245870 9.210160 3.131460
N 9.615750 8.438240 3.896360
N 10.157300 9.170020 3.643150
N 11.248800 9.123740 4.169090
N 6.588740 11.166000 3.290700
N 9.254820 11.233900 2.941590
N 9.288610 10.014900 3.720780
N 8.533080 10.872500 3.499130
N 11.435200 10.760000 3.011950
N 10.551900 9.979980 3.386420
N 9.790440 10.053600 2.829580
N 6.402140 6.443470 5.809240
N 6.454970 7.206080 4.966580
N 9.936170 7.006520 4.525680
N 10.800100 7.533350 4.258510
N 10.962300 7.830780 5.159170
N 6.511800 8.160100 4.850300
N 7.006390 9.594640 5.507410
N 9.545260 9.005550 4.898670
N 8.816170 9.610290 4.638610
N 10.015300 7.957280 4.865260
N 10.457500 8.887510 4.630770
N 6.455720 9.967050 4.823860
N 9.304780 10.491800 4.515830
N 7.527530 7.652390 7.527360
N 6.851410 6.741300 7.743440
N 7.728600 8.123490 6.695750
N 7.446730 8.849480 6.151740
N 7.149520 9.730920 6.416990
N 7.293890 7.253140 8.421770
N 6.974360 11.253100 30.068500
N 7.289070 7.517110 32.649900
N 8.483890 7.032690 32.796400
N 9.259880 9.115950 31.991900
N 8.147590 7.888810 32.499700
N 8.789700 9.265440 32.905400
N 10.096800 9.031940 31.439000
N 10.486600 8.173700 31.558500
N 10.164800 7.979250 33.115800
N 9.901750 8.608960 32.495200
N 6.613140 9.982240 32.854700
N 7.054720 11.874100 2.278480
N 8.993040 12.008300 2.002360
N 8.724390 11.496600 1.094420
N 9.663380 11.503000 0.836668
N 11.048800 16.800300 1.336020
N 6.594340 12.083400 3.073560
N 9.381790 12.363400 2.834150
N 8.777810 11.892200 3.414960
N 10.873600 16.462200 2.436070
N 11.095500 14.419600 5.957470
N 11.325100 13.615600 6.388420
N 11.222600 16.850100 16.671000
N 6.334330 11.756500 30.524500
N 8.921280 16.457700 30.648000
N 9.764920 16.653700 30.258600
N 8.928510 16.290600 32.123600
N 10.551500 16.607300 33.074600
N 9.760820 16.638500 31.877500
N 11.465200 16.588000 32.560300
N 7.282150 18.220600 1.472670
N 7.586860 18.594100 2.261850
N 10.098000 18.366200 1.268360
N 10.251100 17.572800 0.727827
N 10.871100 17.979900 2.343530
N 6.753810 18.839800 0.962925
N 6.944490 19.768300 0.916505
N 9.026340 18.856000 1.235780
N 8.821620 19.719200 0.885214
N 8.361120 20.479300 1.492990
N 9.557850 20.008600 1.536740
N 8.526640 19.750800 2.111380
N 8.464920 18.802100 2.107380
N 11.056300 18.803100 1.127050
N 9.794700 19.202500 0.777023
N 10.426200 19.562100 1.408570
N 10.930200 18.943600 2.160160
N 9.694540 19.451900 2.331180
N 10.158700 20.448900 2.202570
N 10.938600 19.941200 2.193320
N 6.601010 20.627400 1.722670
N 7.482070 20.539200 2.124760
N 7.324480 20.781500 1.123460
N 7.217040 21.502900 1.803650
N 7.314170 22.241500 2.355980
N 8.230080 21.154100 2.189410
N 9.171010 22.275600 1.257770
N 10.251900 22.040800 1.398860
N 11.226200 21.626500 1.398630
N 10.574600 21.300500 0.631995
N 10.514900 17.239200 2.793290
N 8.363750 20.301800 2.913400
N 8.721670 19.789000 3.635740
N 9.555670 19.270900 3.654830
N 10.612600 20.313900 4.106710
N 9.688840 20.190200 2.947960
N 10.716700 19.664000 3.134960
N 11.308200 19.714400 3.830840
N 8.536180 21.980200 3.922010
N 8.231290 21.034400 3.456580
N 9.492910 21.964100 3.730870
N 9.043900 21.438000 3.071730
N 9.088020 20.886600 3.809070
N 11.340900 21.534200 3.757370
N 10.367300 21.580300 3.752770
N 10.022700 21.233000 2.986070
N 10.829700 20.706000 3.074590
N 10.820800 19.971400 5.391270
N 9.562390 21.461700 5.835040
N 11.375700 22.308300 4.373770
N 11.422100 20.732000 4.495740
N 10.785600 21.325500 4.738980
N 10.766500 22.159500 5.188280
N 10.050000 20.536500 5.403860
N 10.532400 21.268800 5.861780
N 11.076900 20.066400 6.300420
N 10.190700 20.427900 6.554990
N 10.362100 20.278400 7.748670
N 9.281920 20.827700 6.442240
N 8.573270 21.745700 6.909950
N 8.488170 20.527700 7.193400
N 8.263490 21.043900 6.377410
N 9.283280 21.054200 7.362420
N 9.442700 22.103000 7.204380
N 11.162700 21.847200 6.508710
N 11.150100 21.584500 7.551090
N 11.407900 20.914000 6.918620
N 9.389420 20.413000 9.503490
N 11.067900 19.627600 8.122300
N 10.427300 19.072900 8.704880
N 10.349500 20.027600 8.954430
N 10.083300 18.862200 9.551790
N 8.896520 21.030700 9.047630
N 8.949430 21.565900 8.264170
N 9.857370 22.035400 9.488020
N 10.048100 21.117500 9.605260
N 9.858280 20.710400 8.458380
N 11.001100 20.588400 8.353960
N 9.811170 22.079800 8.242630
N 9.770800 18.577700 10.418400
N 10.354600 18.179300 11.399900
N 10.931500 20.388300 10.732400
N 11.227700 21.327500 10.415100
N 11.401800 19.671600 12.295300
N 10.500900 19.217000 12.464400
N 9.925130 18.930000 11.810100
N 10.350600 19.886200 14.723200
N 11.302100 19.194100 15.071400
N 11.180700 19.649200 14.219900
N 10.809800 20.721900 14.419700
N 11.291800 17.767900 16.430000
N 11.148700 18.243200 15.640500
N 6.404030 21.310500 18.642900
N 7.039580 21.809100 18.062900
N 10.072100 17.550100 28.798100
N 10.266700 17.400700 29.757700
N 9.461790 19.450400 31.179100
N 8.804120 21.114000 31.242300
N 7.875500 21.311600 31.183200
N 11.007200 22.120800 30.158400
N 10.663200 21.414200 30.773600
N 8.658420 16.933600 31.448700
N 9.590160 17.066600 32.712200
N 10.471300 18.574900 32.944400
N 7.794340 19.969800 33.119900
N 7.807150 19.538000 32.258500
N 7.246610 20.369200 32.392900
N 8.829230 19.259600 31.937500
N 8.574090 19.027200 32.789400
N 9.302070 20.463500 31.704400
N 10.186500 19.185200 31.805100
N 10.353100 20.122300 31.844100
N 6.564310 22.316600 32.847700
N 7.681780 21.960000 32.765400
N 7.040440 21.248900 32.651800
N 8.714230 21.959900 33.047400
N 8.891110 21.256300 32.423900
N 8.256710 22.004300 32.036000
N 8.050000 20.927200 32.042300
N 9.850350 21.347300 31.477200
N 11.001500 20.532500 32.715700
N 11.066600 22.158700 33.068400
N 9.881120 20.929500 32.379800
N 10.903500 20.733200 31.390900
N 9.812810 21.946400 32.211300
N 9.665940 21.613000 33.150700
N 7.245700 24.127200 0.771677
N 7.087540 22.394200 1.172970
N 7.280130 23.184800 0.658929
N 8.250150 22.784000 1.028860
N 9.929720 22.884900 2.085980
N 10.928500 22.412500 1.895380
N 9.829200 27.138700 1.478170
N 10.815700 26.237900 1.783330
N 11.012300 27.726600 1.266060
N 11.287600 27.129500 1.990470
N 11.041600 26.707700 1.000240
N 7.058470 23.135800 2.465490
N 8.005480 22.944300 2.559700
N 8.425750 22.767900 3.377990
N 9.628120 22.986400 3.413950
N 9.485090 23.543800 2.659700
N 10.500800 23.273800 2.779550
N 11.189900 22.741000 3.207000
N 10.369800 22.450800 3.949800
N 11.369000 26.941100 4.075340
N 10.507800 26.681000 2.855960
N 10.367100 26.883100 3.911510
N 11.354300 26.366500 2.623350
N 11.097200 27.405700 3.119690
N 9.060910 23.880800 5.173080
N 9.517450 23.104600 5.669050
N 11.346700 22.490000 5.914780
N 11.070300 24.114300 4.763220
N 9.888730 22.389900 4.794140
N 11.073000 23.188500 4.776040
N 9.897080 23.356200 4.729940
N 10.298600 24.128300 5.302360
N 9.327050 24.528900 5.833550
N 9.161980 24.584900 4.494330
N 10.259200 24.885000 5.964660
N 11.320600 25.094000 5.148890
N 10.823400 26.969100 4.852530
N 10.892600 27.206200 5.839500
N 9.184960 23.778400 6.390920
N 9.280380 22.341600 6.219930
N 9.846910 22.875300 6.794420
N 10.229700 23.742100 7.361430
N 10.131500 23.872800 6.447760
N 6.255460 24.702700 7.758950
N 7.773920 25.014100 7.616810
N 8.552260 25.569500 7.430220
N 9.785570 24.737100 6.755510
N 10.714900 24.787100 6.939820
N 11.172000 25.587600 7.049850
N 10.019900 25.609500 7.593100
N 11.121800 25.321600 6.128850
N 10.094200 27.584200 6.073480
N 8.941670 23.573000 9.529900
N 10.068800 22.948700 7.936170
N 10.620800 23.869700 8.328700
N 9.778870 23.605800 9.117780
N 10.850400 23.743800 9.316640
N 10.304000 22.781000 8.912190
N 7.101360 24.526000 8.198150
N 6.966950 25.283300 8.951490
N 8.412660 24.356600 9.380240
N 9.130870 25.476900 8.180330
N 9.071200 24.846900 8.888030
N 11.442700 25.475100 8.295710
N 9.788570 24.727100 7.973570
N 10.910500 24.590300 7.876200
N 10.037800 24.565200 9.469060
N 11.068300 24.610000 9.068100
N 10.755500 26.080300 7.895880
N 7.611710 23.730200 10.359000
N 8.795380 23.026300 10.770600
N 8.078140 23.825900 11.183200
N 9.387040 22.654800 10.078300
N 10.110200 22.640800 11.004100
N 11.095600 22.598900 10.466500
N 9.759400 23.888000 10.121100
N 10.400700 22.942900 9.859500
N 10.506700 23.559600 10.672000
N 7.570670 25.227300 9.695360
N 6.596670 25.169400 10.953800
N 7.067190 24.464200 10.521800
N 6.576660 25.512700 9.780580
N 8.346260 25.827700 10.908700
N 8.457640 25.545400 9.994900
N 9.297690 24.789600 10.045300
N 9.267180 25.320900 11.298600
N 10.763500 25.055400 10.960000
N 10.805300 24.335900 10.183300
N 9.747370 24.643600 10.912700
N 11.174000 25.163900 9.846980
N 6.638780 26.954300 11.115600
N 6.484740 26.203900 10.522000
N 7.405760 26.582600 10.480800
N 7.949150 27.581200 10.852500
N 8.363100 26.830900 10.489200
N 9.204730 26.161100 10.682000
N 10.069500 26.364400 11.077200
N 6.905810 24.003400 12.141300
N 7.457260 23.308100 12.310400
N 7.784820 22.445300 12.599700
N 8.285930 23.200800 12.927600
N 9.035140 23.588900 12.586000
N 8.604460 23.310700 11.825500
N 9.189030 22.603100 12.640000
N 8.688950 22.449500 11.517800
N 10.123400 22.835200 12.830300
N 10.994300 23.308200 12.737300
N 9.734460 22.591300 11.836000
N 6.895640 25.407800 12.134300
N 7.196290 25.780600 12.943800
N 7.689770 24.863000 12.504800
N 6.268760 24.611300 11.858800
N 7.264740 24.763000 11.544700
N 8.069520 24.145600 12.038600
N 8.385440 24.357300 12.945700
N 9.584800 25.571500 12.411400
N 10.019100 24.778000 11.866100
N 10.199800 25.226900 12.985800
N 10.785100 24.474000 12.486200
N 10.845100 25.372200 12.126300
N 10.664800 24.219400 11.510900
N 6.194740 27.005800 12.169300
N 7.407690 27.371000 12.939300
N 7.432850 27.267000 11.596900
N 6.562160 26.602600 13.083400
N 8.813040 26.074300 12.004500
N 9.131030 27.393200 12.630900
N 8.232480 27.090200 12.450300
N 8.126880 26.586000 11.538000
N 8.825120 26.481500 12.961300
N 9.663970 26.663800 12.201700
N 10.516200 26.123300 13.102000
N 9.987340 26.975100 13.067400
N 10.539100 26.290000 11.916200
N 6.453180 24.120100 13.849500
N 8.616770 23.389100 14.115100
N 8.701170 24.036700 14.815200
N 9.192300 23.830700 13.511600
N 9.433800 22.847000 13.746400
N 9.529220 23.436900 14.540500
N 10.867800 23.115900 13.644100
N 10.194700 22.668300 14.232300
N 10.487800 23.956600 14.065300
N 11.266800 24.122300 14.594500
N 6.399260 25.723900 13.487800
N 6.945980 24.960600 13.926100
N 7.397550 25.777700 14.049300
N 9.627980 24.341500 14.784400
N 8.765740 24.569500 13.945000
N 8.139740 25.154100 14.527100
N 10.804100 24.881700 13.923600
N 10.208100 25.583500 13.900700
N 9.997150 25.339300 14.939800
N 10.821600 24.866200 14.973100
N 6.538720 25.946800 14.534300
N 6.964640 26.830200 14.056100
N 7.731090 27.441100 14.075600
N 6.214640 27.281900 14.986500
N 6.478360 27.676500 14.171900
N 9.492050 26.103100 13.508500
N 8.853790 26.913400 14.432500
N 8.669220 27.188600 13.577800
N 11.254400 26.827600 14.620000
N 10.592100 26.110900 14.994800
N 7.202080 23.559700 16.356500
N 7.832780 24.208900 16.338200
N 8.687320 24.145500 15.939500
N 8.877920 25.070600 15.176400
N 9.482470 24.585000 15.739100
N 8.384160 27.161100 15.224100
N 8.485920 27.430300 16.178200
N 9.200000 27.001500 16.733500
N 11.444000 27.671400 15.124700
N 7.505880 23.441000 17.246800
N 7.262480 22.507600 17.455700
N 9.664690 27.258400 17.556800
N 9.768910 27.068700 19.300800
N 7.146150 25.524600 29.512100
N 10.708100 22.902800 29.708400
N 7.487720 25.842700 30.375000
N 10.869300 24.947300 31.357200
N 7.656900 27.478800 30.310700
N 8.873810 27.159600 29.769100
N 8.189890 26.423600 30.768000
N 9.022850 26.461800 31.204700
N 9.152890 26.316300 30.148200
N 11.065400 25.942100 31.225700
N 8.359080 23.531600 32.989800
N 10.739900 23.773900 31.460200
N 10.204500 22.507900 33.091500
N 8.053800 24.420400 32.966700
N 10.232000 24.385800 31.952400
N 9.632410 27.527300 33.129500
N 9.770720 26.616900 32.869300
N 11.418800 26.577700 31.865200
N 10.903100 26.437200 32.641400
N 8.379500 29.279800 2.273490
N 8.700740 29.333000 1.374110
N 9.450510 29.490000 0.854404
N 11.048900 28.717000 1.238470
N 10.576400 28.970400 2.005640
N 11.051800 28.012200 2.352480
N 11.446700 28.888200 2.345860
N 10.232200 27.885700 1.933370
N 10.443100 29.550600 1.092420
N 7.766680 29.892600 1.772420
N 6.636760 30.878900 0.969828
N 6.682600 30.072000 1.780570
N 7.307330 30.731000 1.916310
N 6.349610 30.990800 1.899980
N 7.271470 30.221100 0.967242
N 6.416240 29.808400 0.668122
N 9.514250 30.390100 1.117160
N 8.182050 30.087900 0.619719
N 9.763510 31.022200 1.873900
N 10.575000 30.500200 1.347550
N 10.690400 29.942100 2.215390
N 10.818600 30.918500 2.331200
N 11.410600 29.692000 1.702380
N 11.290700 29.661300 0.708349
N 7.369480 32.337900 2.327430
N 8.747960 31.522300 1.155930
N 9.052730 32.002000 1.931230
N 8.586470 32.913700 2.019920
N 11.216900 32.062100 2.387240