LAMMPS (3 Mar 2020)
OMP_NUM_THREADS environment is not set. Defaulting to 1 thread. (src/comm.cpp:94)
  using 1 OpenMP thread(s) per MPI task
Reading restart file ...
  restart file = 3 Mar 2020, LAMMPS = 3 Mar 2020
  restoring atom style full from restart
  orthogonal box = (0.468009 0.468009 0.468009) to (33.322 33.322 33.322)
  6 by 6 by 6 MPI processor grid
  restoring pair style hybrid/overlay from restart
  restoring bond style fene from restart
  28900 atoms
  8700 bonds
Finding 1-2 1-3 1-4 neighbors ...
  special bond factors lj:   0          1          1         
  special bond factors coul: 0          1          1         
  2 = max # of 1-2 neighbors
  6 = max # of special neighbors
  special bonds CPU = 2.45804 secs
  read_restart CPU = 2.65468 secs
Resetting global fix info from restart file:
  fix style: nvt, fix ID: pt
100 rigid bodies with 1900 atoms
Resetting global fix info from restart file:
  fix style: rigid/nvt, fix ID: ri
System init for write_data ...
PPPM initialization ...
  using 12-bit tables for long-range coulomb (src/kspace.cpp:332)
  G vector (1/distance) = 1.23381
  grid = 120 120 120
  stencil order = 5
  estimated absolute RMS force accuracy = 0.000120552
  estimated relative force accuracy = 0.000120552
  using double precision FFTW3
  3d grid and FFT values/proc = 19683 8400
All restart file global fix info was re-assigned
Unused restart file peratom fix info:
  fix style: STORE, fix ID: par_COMPUTE_STORE
WARNING: Neighbor exclusions used with KSpace solver may give inconsistent Coulombic energies (src/neighbor.cpp:486)
Neighbor list info ...
  update every 1 steps, delay 0 steps, check yes
  max neighbors/atom: 2000, page size: 100000
  master list distance cutoff = 2.8
  ghost atom cutoff = 2.8
  binsize = 1.4, bins = 24 24 24
  2 neighbor lists, perpetual/occasional/extra = 2 0 0
  (1) pair lj/cut, perpetual
      attributes: half, newton on
      pair build: half/bin/newton
      stencil: half/bin/3d/newton
      bin: standard
  (2) pair coul/long, perpetual, skip from (1)
      attributes: half, newton on
      pair build: skip
      stencil: none
      bin: none
PPPM initialization ...
  using 12-bit tables for long-range coulomb (src/kspace.cpp:332)
  G vector (1/distance) = 1.23381
  grid = 120 120 120
  stencil order = 5
  estimated absolute RMS force accuracy = 0.000120552
  estimated relative force accuracy = 0.000120552
  using double precision FFTW3
  3d grid and FFT values/proc = 19683 8400
WARNING: Neighbor exclusions used with KSpace solver may give inconsistent Coulombic energies (src/neighbor.cpp:486)
Neighbor list info ...
  update every 1 steps, delay 0 steps, check yes
  max neighbors/atom: 2000, page size: 100000
  master list distance cutoff = 2.8
  ghost atom cutoff = 2.8
  binsize = 1.4, bins = 24 24 24
  2 neighbor lists, perpetual/occasional/extra = 2 0 0
  (1) pair lj/cut, perpetual
      attributes: half, newton on
      pair build: half/bin/newton
      stencil: half/bin/3d/newton
      bin: standard
  (2) pair coul/long, perpetual, skip from (1)
      attributes: half, newton on
      pair build: skip
      stencil: none
      bin: none
Setting up Verlet run ...
  Unit style    : lj
  Current step  : 12000000
  Time step     : 0.005
Per MPI rank memory allocation (min/avg/max) = 11 | 11.05 | 11.18 Mbytes
Step Temp Press Volume 
12000000   0.80028901  -0.12993988    35462.068 
12010000   0.79843797  -0.12978305    35462.068 
12020000   0.79713936  -0.11533654    35462.068 
12030000   0.79977535 -0.080211915    35462.068 
12040000   0.80284227  -0.13440023    35462.068 
12050000    0.7981266  -0.19779377    35462.068 
12060000   0.80777083  -0.17291581    35462.068 
12070000   0.79842573  -0.16894169    35462.068 
12080000   0.80378945  -0.15956841    35462.068 
12090000   0.80005127  -0.21091199    35462.068 
12100000   0.79813512  -0.16169691    35462.068 
12110000   0.79418328  -0.17709455    35462.068 
12120000    0.7977365  -0.13380339    35462.068 
12130000   0.80179967  -0.16010571    35462.068 
12140000   0.80421298 -0.082011341    35462.068 
12150000   0.79556414  -0.15293348    35462.068 
12160000     0.795822  -0.12311146    35462.068 
12170000   0.79773993  -0.12116173    35462.068 
12180000   0.79672971  -0.10413691    35462.068 
12190000   0.80176044  -0.15446295    35462.068 
12200000   0.79947407  -0.13342615    35462.068 
12210000   0.79117577  -0.11398779    35462.068 
12220000   0.79603211  -0.21421178    35462.068 
12230000   0.80472362  -0.13430346    35462.068 
12240000   0.79583783 -0.096624094    35462.068 
12250000   0.80451465  -0.16873267    35462.068 
12260000   0.79734083  -0.23944967    35462.068 
12270000   0.80195325 -0.071621245    35462.068 
12280000    0.8054447  -0.14428191    35462.068 
12290000   0.80210752  -0.18427393    35462.068 
12300000   0.80030668  -0.15259966    35462.068 
12310000   0.80129004  -0.12840667    35462.068 
12320000   0.79857116  -0.10241123    35462.068 
12330000   0.80011745  -0.10827236    35462.068 
12340000   0.79367252   -0.1569506    35462.068 
12350000   0.79939388  -0.16246914    35462.068 
12360000   0.79640101  -0.11129097    35462.068 
12370000   0.79638868  -0.17128413    35462.068 
12380000   0.79908664  -0.13321289    35462.068 
12390000   0.79531528  -0.15960418    35462.068 
12400000   0.80614429  -0.15445179    35462.068 
12410000   0.79707952  -0.14690103    35462.068 
12420000    0.7962923  -0.13182723    35462.068 
12430000   0.79657688  -0.10172679    35462.068 
12440000    0.7964475  -0.12711976    35462.068 
12450000   0.80117745  -0.13028542    35462.068 
12460000   0.79298514   -0.1464402    35462.068 
12470000   0.79479316  -0.11698219    35462.068 
12480000   0.79331714   -0.1085228    35462.068 
12490000   0.79578893 -0.087717208    35462.068 
12500000   0.80599072  -0.12333029    35462.068 
12510000    0.8007262  -0.10894219    35462.068 
12520000   0.80143616  -0.11751059    35462.068 
12530000   0.80476154  -0.10419389    35462.068 
12540000   0.79659724  -0.18120615    35462.068 
12550000   0.80247898  -0.10367249    35462.068 
12560000   0.79684062  -0.14956382    35462.068 
12570000   0.79880468  -0.20891077    35462.068 
12580000   0.79639466   -0.1168048    35462.068 
12590000   0.79212906  -0.16179403    35462.068 
12600000   0.80327168  -0.16391637    35462.068 
12610000   0.80241588  -0.15501224    35462.068 
12620000   0.79693905 -0.080960498    35462.068 
12630000   0.80412541  -0.18113876    35462.068 
12640000   0.80237966  -0.14118293    35462.068 
12650000   0.80150802    -0.047096    35462.068 
12660000   0.80571009 -0.087700059    35462.068 
12670000   0.79907147  -0.15889444    35462.068 
12680000   0.79842345  -0.17597242    35462.068 
12690000   0.80197482 -0.092001882    35462.068 
12700000   0.79937008 -0.068088032    35462.068 
12710000   0.79516759  -0.12681789    35462.068 
12720000    0.7982746  -0.14563719    35462.068 
12730000   0.80316822   -0.1881445    35462.068 
12740000    0.7963902  -0.12014818    35462.068 
12750000   0.80511198  -0.13022753    35462.068 
12760000   0.80465584  -0.14976988    35462.068 
12770000   0.79467197  -0.19086229    35462.068 
12780000   0.80799235  -0.10613466    35462.068 
12790000   0.80106008 -0.069205105    35462.068 
12800000   0.79213944  -0.16616128    35462.068 
12810000   0.79603922  -0.15172327    35462.068 
12820000   0.79752882 -0.087613444    35462.068 
12830000   0.79931095  -0.14700576    35462.068 
12840000   0.80414448  -0.15423803    35462.068 
12850000   0.79793278  -0.12968996    35462.068 
12860000    0.7933626  -0.21076663    35462.068 
12870000   0.80563433  -0.10389322    35462.068 
12880000   0.79547718  -0.13943591    35462.068 
12890000   0.80626183  -0.11220322    35462.068 
12900000   0.80380598 -0.090984215    35462.068 
12910000   0.80048452 -0.095287202    35462.068 
12920000   0.79863497 -0.084145657    35462.068 
12930000   0.79992451 -0.096248194    35462.068 
12940000   0.79372923  -0.12215804    35462.068 
12950000      0.79984  -0.19142497    35462.068 
12960000   0.80047441  -0.19495356    35462.068 
12970000    0.7959022  -0.11361745    35462.068 
12980000   0.80371264  -0.19030208    35462.068 
12990000   0.80448964  -0.13078216    35462.068 
13000000   0.80499803  -0.13945463    35462.068 
Loop time of 15187.5 on 216 procs for 1000000 steps with 28900 atoms

Performance: 28444.456 tau/day, 65.844 timesteps/s
99.7% CPU use with 216 MPI tasks x 1 OpenMP threads

MPI task timing breakdown:
Section |  min time  |  avg time  |  max time  |%varavg| %total
---------------------------------------------------------------
Pair    | 81.346     | 241.88     | 458.5      | 402.9 |  1.59
Bond    | 1.1016     | 2.309      | 4.3043     |  39.1 |  0.02
Kspace  | 13656      | 13891      | 14020      |  58.0 | 91.46
Neigh   | 152.35     | 159.49     | 166.35     |  22.1 |  1.05
Comm    | 282.29     | 351.7      | 535.79     | 240.5 |  2.32
Output  | 0.010993   | 0.013212   | 0.02266    |   0.9 |  0.00
Modify  | 393.16     | 434.81     | 490.05     |  88.2 |  2.86
Other   |            | 106.7      |            |       |  0.70

Nlocal:    133.796 ave 238 max 1 min
Histogram: 1 5 1 8 11 143 27 11 6 3
Nghost:    975.944 ave 1266 max 232 min
Histogram: 1 0 2 3 9 7 42 113 30 9
Neighs:    5137.38 ave 13828 max 1 min
Histogram: 6 8 17 130 32 8 9 3 1 2

Total # of neighbors = 1109673
Ave neighs/atom = 38.397
Ave special neighs/atom = 0.602076
Neighbor list builds = 134421
Dangerous builds = 0
PPPM initialization ...
  using 12-bit tables for long-range coulomb (src/kspace.cpp:332)
  G vector (1/distance) = 1.23381
  grid = 120 120 120
  stencil order = 5
  estimated absolute RMS force accuracy = 0.000120552
  estimated relative force accuracy = 0.000120552
  using double precision FFTW3
  3d grid and FFT values/proc = 19683 8400
WARNING: Neighbor exclusions used with KSpace solver may give inconsistent Coulombic energies (src/neighbor.cpp:486)
Neighbor list info ...
  update every 1 steps, delay 0 steps, check yes
  max neighbors/atom: 2000, page size: 100000
  master list distance cutoff = 2.8
  ghost atom cutoff = 2.8
  binsize = 1.4, bins = 24 24 24
  7 neighbor lists, perpetual/occasional/extra = 2 5 0
  (1) pair lj/cut, perpetual
      attributes: half, newton on
      pair build: half/bin/newton
      stencil: half/bin/3d/newton
      bin: standard
  (2) pair coul/long, perpetual, skip from (1)
      attributes: half, newton on
      pair build: skip
      stencil: none
      bin: none
  (3) compute rdf, occasional, copy from (1)
      attributes: half, newton on
      pair build: copy
      stencil: none
      bin: none
  (4) compute rdf, occasional, copy from (1)
      attributes: half, newton on
      pair build: copy
      stencil: none
      bin: none
  (5) compute rdf, occasional, copy from (1)
      attributes: half, newton on
      pair build: copy
      stencil: none
      bin: none
  (6) compute rdf, occasional, copy from (1)
      attributes: half, newton on
      pair build: copy
      stencil: none
      bin: none
  (7) compute rdf, occasional, copy from (1)
      attributes: half, newton on
      pair build: copy
      stencil: none
      bin: none
Setting up Verlet run ...
  Unit style    : lj
  Current step  : 0
  Time step     : 0.005
Per MPI rank memory allocation (min/avg/max) = 16.56 | 20.13 | 20.74 Mbytes
Step Temp Press PotEng KinEng E_pair E_bond TotEng 
       0   0.80499803  -0.29888797    1.2626162     1.136426   -4.9423137    6.2049299    2.3990422 
   10000   0.80945287  -0.10512036    1.2529596     1.142715   -4.9507985    6.2037581    2.3956745 
   20000   0.80495317  -0.16994761    1.2529063    1.1363627   -4.9542658    6.2071721     2.389269 
   30000   0.80077755  -0.10034605    1.2606839    1.1304679   -4.9478473    6.2085312    2.3911518 
   40000   0.79259207  -0.16955244    1.2584948    1.1189124   -4.9447944    6.2032891    2.3774071 
   50000    0.8035545  -0.13647322    1.2602785    1.1343882   -4.9455935     6.205872    2.3946667 
   60000   0.79274427  -0.14457359    1.2584856    1.1191272    -4.943514    6.2019996    2.3776128 
   70000   0.78895063  -0.11792157    1.2606419    1.1137717   -4.9419075    6.2025493    2.3744136 
   80000   0.79814619   -0.1325878    1.2543328    1.1267532   -4.9483406    6.2026734     2.381086 
   90000   0.80102663 -0.097672792    1.2575789    1.1308196   -4.9469368    6.2045157    2.3883985 
  100000   0.80284797 -0.066890383    1.2537976    1.1333908   -4.9509051    6.2047027    2.3871883 
  110000   0.80233705   -0.1194669     1.253759    1.1326695   -4.9481719    6.2019309    2.3864285 
  120000   0.80394818  -0.16618215     1.250474    1.1349439   -4.9512043    6.2016783    2.3854179 
  130000   0.79905277  -0.13903974    1.2598014     1.128033    -4.943344    6.2031453    2.3878344 
  140000   0.79554888  -0.13519447    1.2536179    1.1230865   -4.9467914    6.2004093    2.3767044 
  150000   0.79711454 -0.057078166    1.2355627    1.1252968     -4.96843    6.2039928    2.3608595 
  160000   0.80256383  -0.20698201    1.2572526    1.1329896   -4.9442871    6.2015397    2.3902423 
  170000   0.80150886  -0.14345297    1.2555635    1.1315003   -4.9515315     6.207095    2.3870638 
  180000   0.79757637 -0.065924197    1.2719675    1.1259488   -4.9307932    6.2027607    2.3979163 
  190000   0.79261987  -0.17076553    1.2443787    1.1189516   -4.9592141    6.2035927    2.3633303 
  200000   0.79859595  -0.12656168    1.2677268    1.1273881   -4.9365438    6.2042705    2.3951149 
  210000   0.79913876  -0.16109479     1.263622    1.1281544   -4.9366468    6.2002688    2.3917764 
  220000   0.80475516 -0.087257655    1.2484939    1.1360832   -4.9597477    6.2082415     2.384577 
  230000    0.8020544  -0.17199713    1.2622985    1.1322705    -4.940646    6.2029445     2.394569 
  240000   0.79881277  -0.19961408    1.2518823    1.1276942   -4.9531153    6.2049976    2.3795765 
  250000    0.8019957   -0.1652291    1.2473679    1.1321876   -4.9608935    6.2082614    2.3795555 
  260000   0.80133975  -0.20164537    1.2543392    1.1312616    -4.950455    6.2047943    2.3856008 
  270000   0.80023484  -0.17495306     1.255082    1.1297018   -4.9498472    6.2049292    2.3847837 
  280000    0.8050415  -0.12740431    1.2501224    1.1364874   -4.9540102    6.2041326    2.3866098 
  290000   0.79830534  -0.16197327    1.2724019    1.1269779   -4.9337729    6.2061748    2.3993798 
  300000   0.79262425  -0.16870298    1.2503894    1.1189578   -4.9522286    6.2026179    2.3693472 
  310000   0.80328686  -0.14881254    1.2650818    1.1340103   -4.9389158    6.2039976    2.3990921 
  320000   0.80024373  -0.10046419    1.2457692    1.1297143    -4.955605    6.2013742    2.3754835 
  330000   0.80233788  -0.11181314    1.2502186    1.1326707    -4.952803    6.2030216    2.3828893 
  340000   0.80271026  -0.17602916    1.2708746    1.1331963   -4.9336417    6.2045163    2.4040709 
  350000   0.80028507  -0.16429637    1.2525151    1.1297727   -4.9478054    6.2003205    2.3822878 
  360000   0.79705688  -0.17058818    1.2496253    1.1252154   -4.9533272    6.2029525    2.3748407 
  370000   0.79429992  -0.12160896     1.256734    1.1213234   -4.9496962    6.2064302    2.3780574 
  380000   0.78917913  -0.11601368    1.2693215    1.1140943   -4.9367428    6.2060643    2.3834158 
  390000   0.79745684  -0.10705491    1.2398054      1.12578   -4.9616746      6.20148    2.3655854 
  400000   0.80652027  -0.17093414     1.259136     1.138575   -4.9417316    6.2008676     2.397711 
  410000    0.8050273   -0.1535527    1.2686868    1.1364674   -4.9341468    6.2028336    2.4051541 
  420000   0.79933623  -0.13549479    1.2521894    1.1284332    -4.953589    6.2057784    2.3806226 
  430000   0.79778338  -0.13750908     1.251943     1.126241   -4.9502008    6.2021438     2.378184 
  440000    0.8033373 -0.085001619    1.2525201    1.1340816    -4.951843    6.2043631    2.3866017 
  450000   0.79941898   -0.1501755    1.2538886      1.12855   -4.9491541    6.2030427    2.3824386 
  460000   0.79377544  -0.20250479    1.2525795    1.1205829   -4.9478449    6.2004244    2.3731625 
  470000   0.80011348  -0.15337699    1.2624537    1.1295304   -4.9388717    6.2013253    2.3919841 
  480000   0.79943184  -0.06643652    1.2688456    1.1285682    -4.937897    6.2067426    2.3974137 
  490000   0.79399846  -0.19567517    1.2526157    1.1208978   -4.9473988    6.2000144    2.3735135 
  500000    0.7955796   -0.1480672     1.252621    1.1231299   -4.9492174    6.2018383    2.3757509 
  510000   0.79957985   -0.1740363    1.2642811    1.1287771   -4.9406971    6.2049782    2.3930582 
  520000   0.79704251  -0.20451989    1.2680312    1.1251951   -4.9377624    6.2057936    2.3932263 
  530000   0.79885128 -0.056826717      1.25005    1.1277486   -4.9534286    6.2034786    2.3777986 
  540000   0.80143107  -0.13584521    1.2437041    1.1313905   -4.9592436    6.2029476    2.3750946 
  550000   0.79227105  -0.17813068    1.2543133    1.1184592   -4.9514719    6.2057852    2.3727725 
  560000   0.80581379  -0.13399351    1.2571869    1.1375776   -4.9448751     6.202062    2.3947645 
  570000   0.80361472  -0.22229831    1.2605055    1.1344732   -4.9427875     6.203293    2.3949787 
  580000   0.79174511  -0.18177161    1.2487458    1.1177167   -4.9530921    6.2018379    2.3664625 
  590000   0.79757918  -0.12205848    1.2700116    1.1259527   -4.9339757    6.2039873    2.3959643 
  600000   0.80136242  -0.12163351    1.2582229    1.1312936   -4.9407603    6.1989832    2.3895165 
  610000   0.79571407  -0.16213533    1.2634349    1.1233197   -4.9440474    6.2074823    2.3867546 
  620000   0.79940218  -0.10438814    1.2458919    1.1285263   -4.9583999    6.2042918    2.3744182 
  630000   0.80328123  -0.20965895    1.2580324    1.1340024   -4.9437218    6.2017541    2.3920348 
  640000   0.79125434 -0.082437104    1.2594459    1.1170239   -4.9414447    6.2008905    2.3764697 
  650000   0.79738761  -0.10517077    1.2541236    1.1256823   -4.9499289    6.2040525    2.3798059 
  660000   0.79595627  -0.12466156    1.2508494    1.1236617   -4.9523054    6.2031548     2.374511 
  670000   0.79959205  -0.19260724    1.2451159    1.1287943   -4.9546641      6.19978    2.3739102 
  680000   0.79324549  -0.19538398    1.2561493    1.1198348   -4.9458009    6.2019502    2.3759842 
  690000   0.79693892  -0.15556513    1.2429724    1.1250489   -4.9631688    6.2061412    2.3680212 
  700000   0.79196471  -0.17698217    1.2597671    1.1180267   -4.9426731    6.2024402    2.3777938 
  710000    0.8002669    -0.119394    1.2712826     1.129747   -4.9328363    6.2041189    2.4010296 
  720000   0.79730183  -0.21165338    1.2514471    1.1255612   -4.9507224    6.2021696    2.3770083 
  730000   0.79409095  -0.18690957    1.2554437    1.1210284    -4.952103    6.2075467    2.3764721 
  740000   0.79464224  -0.17169296    1.2720675    1.1218066   -4.9297282    6.2017957    2.3938741 
  750000   0.79093771   -0.2088745    1.2672555    1.1165769   -4.9380676    6.2053231    2.3838324 
  760000   0.79984849  -0.14017089    1.2565739    1.1291564   -4.9462468    6.2028208    2.3857303 
  770000   0.79386498  -0.16351065    1.2683888    1.1207093   -4.9368276    6.2052164    2.3890982 
  780000   0.80326293   -0.1399462    1.2742124    1.1339766   -4.9305978    6.2048102    2.4081889 
  790000   0.80729847  -0.15800014    1.2910334    1.1396736   -4.9134505    6.2044839     2.430707 
  800000   0.79381011  -0.19005939    1.2523335    1.1206319   -4.9491717    6.2015052    2.3729654 
  810000   0.79305037  -0.20545112    1.2471977    1.1195594   -4.9564148    6.2036126    2.3667571 
  820000   0.80320601  -0.12182685    1.2558388    1.1338962    -4.947309    6.2031478     2.389735 
  830000   0.80080563  -0.16452448    1.2531878    1.1305076   -4.9501451     6.203333    2.3836954 
  840000    0.8013009  -0.12174646    1.2585082    1.1312067   -4.9456735    6.2041817     2.389715 
  850000   0.79546579  -0.15295134     1.242821    1.1229692     -4.95921     6.202031    2.3657902 
  860000   0.78924037  -0.10941881    1.2601393    1.1141807   -4.9405097    6.2006489      2.37432 
  870000   0.80309455  -0.12608387    1.2481274    1.1337389   -4.9560436    6.2041709    2.3818662 
  880000   0.81247569  -0.15812097    1.2605024    1.1469823   -4.9457544    6.2062567    2.4074847 
  890000   0.79581816  -0.20197251    1.2358168    1.1234667    -4.965633    6.2014498    2.3592835 
  900000   0.79687253  -0.15514396    1.2593552    1.1249552   -4.9447201    6.2040754    2.3843104 
  910000   0.80117101  -0.18551207    1.2704743    1.1310234   -4.9328719    6.2033462    2.4014977 
  920000   0.79976365  -0.15387732    1.2479824    1.1290366   -4.9526508    6.2006332     2.377019 
  930000   0.79575965 -0.097505772    1.2519871    1.1233841   -4.9521355    6.2041226    2.3753712 
  940000   0.79245414  -0.14808983    1.2652351    1.1187177   -4.9398005    6.2050356    2.3839528 
  950000   0.79405839 -0.076943446     1.261061    1.1209824   -4.9438175    6.2048785    2.3820433 
  960000   0.79933001  -0.19022357    1.2617633    1.1284244   -4.9416385    6.2034019    2.3901877 
  970000   0.79768525   -0.1096997    1.2573335    1.1261025   -4.9452628    6.2025962    2.3834359 
  980000   0.80288294  -0.11306003    1.2566126    1.1334401   -4.9479758    6.2045884    2.3900527 
  990000    0.8001338 -0.097202612    1.2463708    1.1295591   -4.9576456    6.2040164    2.3759299 
 1000000   0.80484594  -0.11637299     1.243798    1.1362113   -4.9589374    6.2027354    2.3800093 
 1010000   0.79335691  -0.14368877    1.2612936    1.1199921   -4.9445528    6.2058465    2.3812858 
 1020000    0.8009189  -0.12858718    1.2547822    1.1306675   -4.9480086    6.2027908    2.3854497 
 1030000   0.80157578  -0.14323734    1.2549098    1.1315948   -4.9494414    6.2043511    2.3865046 
 1040000   0.80980197  -0.13816702    1.2531259    1.1432078   -4.9498865    6.2030124    2.3963337 
 1050000    0.7953201  -0.21051013    1.2481685    1.1227636   -4.9540857    6.2022542     2.370932 
 1060000   0.79526854  -0.16920587    1.2611681    1.1226908   -4.9425805    6.2037487    2.3838589 
 1070000   0.80161627  -0.17841885    1.2510101     1.131652   -4.9501565    6.2011666     2.382662 
 1080000   0.79964871  -0.16052048    1.2598851    1.1288743   -4.9455613    6.2054464    2.3887594 
 1090000   0.79604481  -0.17602446    1.2436673    1.1237866   -4.9590626    6.2027299    2.3674539 
 1100000   0.79741617 -0.089527588    1.2491648    1.1257226   -4.9548459    6.2040107    2.3748874 
 1110000    0.7966392  -0.17774831    1.2473048    1.1246258   -4.9557846    6.2030893    2.3719305 
 1120000   0.79733988  -0.12555493    1.2595455    1.1256149   -4.9432031    6.2027486    2.3851605 
 1130000    0.7969088 -0.087892943    1.2666547    1.1250064     -4.93673    6.2033847    2.3916611 
 1140000   0.80273093  -0.21424404    1.2528936    1.1332255   -4.9483903    6.2012839    2.3861191 
 1150000   0.80427913  -0.20970908    1.2542988    1.1354111   -4.9490929    6.2033917    2.3897099 
 1160000   0.79881236   -0.1238538    1.2490748    1.1276936   -4.9560188    6.2050936    2.3767684 
 1170000   0.79804152  -0.23531912     1.256518    1.1266054   -4.9485342    6.2050521    2.3831234 
 1180000   0.80388412  -0.19792475    1.2627885    1.1348535   -4.9384185     6.201207     2.397642 
 1190000   0.80040976  -0.14257222    1.2452841    1.1299487   -4.9571581    6.2024422    2.3752328 
 1200000    0.8045259  -0.12674522    1.2587302    1.1357595   -4.9460245    6.2047547    2.3944897 
 1210000   0.80269543  -0.14711345    1.2431402    1.1331754   -4.9579416    6.2010818    2.3763157 
 1220000   0.79555601  -0.06387632    1.2403762    1.1230966    -4.963824    6.2042003    2.3634728 
 1230000   0.79873779  -0.15905746    1.2445712    1.1275884   -4.9600599    6.2046311    2.3721595 
 1240000   0.80057053  -0.10844153    1.2533014    1.1301757   -4.9522392    6.2055406    2.3834771 
 1250000   0.79808952 -0.082815654    1.2291315    1.1266732   -4.9747052    6.2038367    2.3558047 
 1260000   0.80504535   -0.1467832    1.2629178    1.1364928   -4.9402949    6.2032128    2.3994107 
 1270000   0.79868847  -0.12609598    1.2539327    1.1275187   -4.9488006    6.2027333    2.3814514 
 1280000   0.80767877 -0.083010761    1.2844368    1.1402105   -4.9187319    6.2031688    2.4246473 
 1290000   0.80119489  -0.12238366    1.2513516    1.1310571   -4.9552565    6.2066081    2.3824087 
 1300000   0.80809587 -0.086801988    1.2624223    1.1407993   -4.9444467     6.206869    2.4032216 
 1310000   0.80097768  -0.14766486    1.2725551    1.1307504    -4.929825    6.2023801    2.4033055 
 1320000   0.80556213 -0.051255827    1.2437562    1.1372224   -4.9609806    6.2047368    2.3809786 
 1330000   0.80571102   -0.1478579    1.2632526    1.1374326   -4.9419589    6.2052114    2.4006852 
 1340000   0.79954856  -0.13390704    1.2468584    1.1287329   -4.9550744    6.2019328    2.3755913 
 1350000   0.80403666   -0.2268493    1.2526212    1.1350688   -4.9516705    6.2042917    2.3876901 
 1360000   0.79963289  -0.13003468    1.2655891     1.128852    -4.937575    6.2031641    2.3944411 
 1370000   0.80046168  -0.16409785    1.2614637     1.130022   -4.9437229    6.2051866    2.3914857 
 1380000   0.80015867  -0.18128897    1.2409779    1.1295942   -4.9608739    6.2018518    2.3705721 
 1390000   0.80237176 -0.070784418    1.2460971    1.1327185   -4.9610243    6.2071214    2.3788156 
 1400000   0.79593476  -0.15136054    1.2576474    1.1236313   -4.9470371    6.2046846    2.3812787 
 1410000   0.79212266  -0.12660004      1.25941    1.1182497   -4.9472814    6.2066914    2.3776597 
 1420000   0.80189376  -0.11144336    1.2625282    1.1320437   -4.9425346    6.2050628    2.3945719 
 1430000   0.79993643  -0.13205979    1.2517224    1.1292805   -4.9515293    6.2032517    2.3810029 
 1440000   0.79491225  -0.15555326    1.2660866    1.1221878   -4.9420314     6.208118    2.3882744 
 1450000   0.80693296 -0.089118116    1.2556168    1.1391576   -4.9485238    6.2041406    2.3947744 
 1460000   0.79750155  -0.16603016    1.2677891    1.1258431   -4.9351585    6.2029476    2.3936323 
 1470000   0.79501196  -0.14340124    1.2741444    1.1223286   -4.9295027    6.2036472     2.396473 
 1480000   0.79839897 -0.089021428    1.2623534      1.12711     -4.93917    6.2015234    2.3894634 
 1490000   0.80146142  -0.11809784    1.2644467    1.1314334   -4.9392399    6.2036865      2.39588 
 1500000   0.80080849  -0.17692196    1.2501735    1.1305116   -4.9478584     6.198032    2.3806851 
 1510000   0.79464905  -0.12762013    1.2593345    1.1218162   -4.9451499    6.2044845    2.3811508 
 1520000   0.79258823 -0.079182046    1.2569652     1.118907    -4.946002    6.2029672    2.3758721 
 1530000   0.79837044  -0.17988343    1.2541759    1.1270698   -4.9476199    6.2017958    2.3812457 
 1540000   0.80211058  -0.12558627    1.2513322    1.1323498   -4.9518921    6.2032243     2.383682 
 1550000   0.79910109  -0.16904535    1.2550867    1.1281012   -4.9490423    6.2041291    2.3831879 
 1560000   0.80140263  -0.19568685    1.2684469    1.1313504   -4.9338436    6.2022904    2.3997972 
 1570000   0.80212101  -0.20443126     1.252306    1.1323645   -4.9513081    6.2036141    2.3846705 
 1580000   0.80912456  -0.16106247    1.2488729    1.1422515   -4.9550799    6.2039528    2.3911244 
 1590000   0.79891077  -0.19945309    1.2647305    1.1278326   -4.9407856    6.2055161     2.392563 
 1600000   0.80050967  -0.12432006    1.2633932    1.1300898   -4.9387295    6.2021227    2.3934829 
 1610000   0.80136002   -0.1428137     1.256938    1.1312902   -4.9468285    6.2037665    2.3882282 
 1620000   0.80296297 -0.089515278    1.2588051    1.1335531   -4.9460626    6.2048677    2.3923582 
 1630000   0.79238177  -0.10667075     1.254261    1.1186155   -4.9490915    6.2033525    2.3728764 
 1640000   0.79914422  -0.18680724    1.2430761    1.1281621   -4.9595664    6.2026425    2.3712382 
 1650000   0.80432327  -0.13986551    1.2530849    1.1354735   -4.9521526    6.2052375    2.3885584 
 1660000    0.7972609  -0.21203285    1.2638113    1.1255034   -4.9421636    6.2059749    2.3893147 
 1670000    0.7996352  -0.13327826    1.2495444    1.1288552    -4.953457    6.2030014    2.3783997 
 1680000   0.79421071  -0.14820912    1.2584148    1.1211974   -4.9451476    6.2035624    2.3796122 
 1690000   0.79382972  -0.11638092    1.2618321    1.1206596   -4.9422858    6.2041178    2.3824917 
 1700000   0.79884471  -0.14043574    1.2500745    1.1277393   -4.9534292    6.2035037    2.3778138 
 1710000   0.79945763  -0.15722938    1.2634521    1.1286046   -4.9405178    6.2039699    2.3920567 
 1720000   0.79378432   -0.1559913    1.2551645    1.1205955   -4.9507828    6.2059474      2.37576 
 1730000   0.79930911  -0.17830266    1.2496439    1.1283949   -4.9564345    6.2060784    2.3780388 
 1740000    0.8039232  -0.10207319    1.2640634    1.1349087   -4.9416685    6.2057319    2.3989721 
 1750000   0.80195504  -0.18351771    1.2589939    1.1321302   -4.9444036    6.2033975    2.3911241 
 1760000   0.79979401  -0.15904866    1.2629273    1.1290794    -4.940639    6.2035663    2.3920068 
 1770000   0.79966085  -0.13406208    1.2568548    1.1288915   -4.9457293    6.2025841    2.3857463 
 1780000   0.80003899   -0.1221814    1.2665961    1.1294253   -4.9395669     6.206163    2.3960214 
 1790000   0.80488334  -0.12816965    1.2464601    1.1362641   -4.9576742    6.2041343    2.3827242 
 1800000   0.80590083  -0.16387134    1.2439818    1.1377005   -4.9584882      6.20247    2.3816823 
 1810000   0.79851569  -0.13546165    1.2547093    1.1272748   -4.9505741    6.2052833    2.3819841 
 1820000   0.79995003  -0.14362726    1.2595896    1.1292997   -4.9456095    6.2051991    2.3888893 
 1830000    0.8022191 -0.083794027    1.2470728     1.132503   -4.9543623    6.2014352    2.3795758 
 1840000   0.79956636  -0.11124418     1.250116    1.1287581   -4.9564148    6.2065308    2.3788741 
 1850000   0.80168738  -0.10734233    1.2461089    1.1317523   -4.9561977    6.2023065    2.3778612 
 1860000   0.80445062  -0.16277447    1.2440138    1.1356532   -4.9616915    6.2057053    2.3796671 
 1870000   0.79831982 -0.098877272    1.2600081    1.1269983   -4.9427259     6.202734    2.3870065 
 1880000   0.80009863  -0.21152683    1.2427561    1.1295095    -4.960049    6.2028051    2.3722656 
 1890000   0.80236211  -0.11046477    1.2428564    1.1327049   -4.9619929    6.2048494    2.3755613 
 1900000   0.80286681  -0.14338428    1.2490753    1.1334174   -4.9549896    6.2040649    2.3824926 
 1910000   0.80142634  -0.13208602    1.2524523    1.1313838    -4.951395    6.2038473    2.3838361 
 1920000   0.79603214  -0.15141608    1.2635747    1.1237688   -4.9409906    6.2045653    2.3873435 
 1930000   0.80115827  -0.17203066    1.2380478    1.1310054   -4.9656731    6.2037209    2.3690532 
 1940000   0.79934014 -0.073981336    1.2457649    1.1284387   -4.9561952    6.2019601    2.3742036 
 1950000   0.79791431  -0.10823798    1.2617239    1.1264258   -4.9462894    6.2080133    2.3881498 
 1960000   0.80077838  -0.14941271    1.2550515    1.1304691    -4.951915    6.2069665    2.3855206 
 1970000   0.79872956   -0.1369804    1.2557362    1.1275767   -4.9469082    6.2026444     2.383313 
 1980000   0.79674153  -0.16270018    1.2529462    1.1247702   -4.9477024    6.2006485    2.3777164 
 1990000   0.79686652  -0.13877758    1.2524745    1.1249467   -4.9514754    6.2039499    2.3774212 
 2000000   0.79658567  -0.11344941    1.2679995    1.1245502   -4.9421917    6.2101913    2.3925497 
 2010000   0.80336978  -0.16611867     1.248781    1.1341274   -4.9549676    6.2037486    2.3829084 
 2020000   0.80164723 -0.049879456    1.2567515    1.1316957   -4.9501145    6.2068661    2.3884472 
 2030000    0.7978986  -0.10555118    1.2551327    1.1264037   -4.9512359    6.2063686    2.3815364 
 2040000   0.80188407  -0.11727494    1.2552807      1.13203   -4.9486665    6.2039472    2.3873107 
 2050000   0.79999769  -0.20316867    1.2573461     1.129367   -4.9475262    6.2048723    2.3867131 
 2060000   0.79948605  -0.11849355    1.2392516    1.1286447   -4.9673884      6.20664    2.3678963 
 2070000   0.79996715 -0.083270028    1.2540206    1.1293239   -4.9518516    6.2058722    2.3833445 
 2080000   0.79400243  -0.13028834    1.2510814    1.1209034   -4.9536601    6.2047414    2.3719848 
 2090000   0.80292551  -0.15429374     1.240186    1.1335002   -4.9612917    6.2014777    2.3736862 
 2100000   0.80119964  -0.15414402    1.2364666    1.1310638   -4.9649058    6.2013724    2.3675304 
 2110000   0.79541532  -0.14867813    1.2587181     1.122898   -4.9449992    6.2037173    2.3816161 
 2120000   0.79970224  -0.12629142    1.2614386    1.1289499   -4.9430998    6.2045384    2.3903885 
 2130000   0.79903348  -0.14443901    1.2564574    1.1280058   -4.9468514    6.2033088    2.3844632 
 2140000   0.80036233  -0.18577308    1.2536152    1.1298818   -4.9500875    6.2037028     2.383497 
 2150000   0.79691114  -0.13034305    1.2400527    1.1250097   -4.9597475    6.1998002    2.3650623 
 2160000   0.80208381   -0.1116797    1.2611236     1.132312   -4.9420967    6.2032203    2.3934356 
 2170000   0.80148029  -0.11588656    1.2632985      1.13146   -4.9406937    6.2039922    2.3947585 
 2180000   0.79674025  -0.17562147    1.2471817    1.1247684   -4.9551292    6.2023109    2.3719501 
 2190000   0.80060732  -0.15333962    1.2559106    1.1302276   -4.9479212    6.2038318    2.3861382 
 2200000    0.7999776 -0.084876678    1.2518145    1.1293386      -4.9491    6.2009145    2.3811531 
 2210000    0.7936988 -0.072623708    1.2654054    1.1204748    -4.939421    6.2048264    2.3858802 
 2220000   0.80498398 -0.059283199    1.2610983    1.1364062   -4.9409876    6.2020859    2.3975045 
 2230000     0.805792  -0.11477983    1.2650768    1.1375469   -4.9404175    6.2054942    2.4026237 
 2240000   0.79225035   -0.1822754    1.2425333      1.11843   -4.9608258     6.203359    2.3609632 
 2250000   0.79938459 -0.069138156    1.2619305    1.1285015   -4.9444727    6.2064033     2.390432 
 2260000   0.79734207  -0.12949251    1.2538349     1.125618   -4.9506239    6.2044588    2.3794529 
 2270000   0.78754344  -0.15084143    1.2339739    1.1117852    -4.969537    6.2035109    2.3457591 
 2280000    0.8029337  -0.15551958    1.2394513    1.1335118   -4.9629521    6.2024033    2.3729631 
 2290000   0.80155496   -0.1057979    1.2651484    1.1315654   -4.9376185    6.2027669    2.3967138 
 2300000   0.79766852  -0.14867362    1.2551237    1.1260789   -4.9491262    6.2042499    2.3812026 
 2310000   0.79559497  -0.15564343    1.2667745    1.1231516   -4.9391555      6.20593    2.3899261 
 2320000   0.79504641  -0.10877297     1.243413    1.1223772   -4.9582412    6.2016542    2.3657902 
 2330000   0.79894352  -0.10591023    1.2513423    1.1278788   -4.9474703    6.1988126    2.3792211 
 2340000   0.79776095 -0.075998669    1.2503998    1.1262093   -4.9579068    6.2083066    2.3766092 
 2350000   0.80011212  -0.13175974    1.2696428    1.1295285   -4.9334841    6.2031269    2.3991713 
 2360000    0.7963226  -0.15478479    1.2598736    1.1241788   -4.9456639    6.2055374    2.3840524 
 2370000   0.79895386 -0.087455093    1.2563304    1.1278934   -4.9496561    6.2059865    2.3842238 
 2380000   0.80112923  -0.13524766    1.2403235    1.1309644   -4.9610646    6.2013881    2.3712879 
 2390000   0.80121092  -0.17340142    1.2519908    1.1310797   -4.9513712    6.2033619    2.3830705 
 2400000   0.79631936   -0.1097699    1.2625452    1.1241742   -4.9434624    6.2060076    2.3867195 
 2410000   0.79569384  -0.12601492    1.2614587    1.1232912   -4.9438901    6.2053488    2.3847499 
 2420000    0.7957326 -0.055762012    1.2517304    1.1233459    -4.955781    6.2075114    2.3750763 
 2430000   0.79622775  -0.18799581    1.2501332    1.1240449   -4.9556228     6.205756    2.3741781 
 2440000   0.80422921 -0.077431716    1.2505663    1.1353407   -4.9558032    6.2063696     2.385907 
 2450000   0.79549551  -0.15410558    1.2310722    1.1230112   -4.9710306    6.2021028    2.3540834 
 2460000   0.80261651  -0.12950717    1.2498854     1.133064   -4.9553387    6.2052241    2.3829494 
 2470000   0.79941847  -0.14722021    1.2564396    1.1285493   -4.9468978    6.2033374    2.3849889 
 2480000   0.79614638  -0.14055324    1.2538291      1.12393   -4.9524912    6.2063204    2.3777592 
 2490000    0.7951877  -0.13943035    1.2482054    1.1225767   -4.9560354    6.2042408    2.3707821 
 2500000   0.80305449  -0.13784768      1.25489    1.1336823   -4.9498423    6.2047323    2.3885723 
 2510000   0.80197452   -0.1808525    1.2569149    1.1321577   -4.9484853    6.2054002    2.3890726 
 2520000    0.7996384 -0.078952974     1.256074    1.1288598   -4.9474821    6.2035561    2.3849337 
 2530000   0.80428151  -0.11724867    1.2523571    1.1354145   -4.9499534    6.2023105    2.3877716 
 2540000   0.80287142  -0.14561957    1.2415022    1.1334239   -4.9613949    6.2028971    2.3749261 
 2550000   0.80304155  -0.16374836     1.254709     1.133664   -4.9489557    6.2036647     2.388373 
 2560000   0.80601422  -0.12231761    1.2498649    1.1378606   -4.9556331     6.205498    2.3877255 
 2570000   0.79481614  -0.15911466    1.2509272    1.1220521   -4.9505406    6.2014678    2.3729793 
 2580000   0.79771872  -0.12591861    1.2553517    1.1261497    -4.949969    6.2053207    2.3815014 
 2590000   0.80097369  -0.16638449    1.2688905    1.1307448    -4.935818    6.2047085    2.3996353 
 2600000     0.798355  -0.18036259    1.2578151     1.127048   -4.9445714    6.2023865    2.3848631 
 2610000   0.79848416  -0.21644468    1.2491271    1.1272303   -4.9532776    6.2024047    2.3763575 
 2620000   0.79785211  -0.13263264    1.2479736     1.126338   -4.9558605    6.2038341    2.3743116 
 2630000   0.79101385  -0.18166249    1.2482885    1.1166844   -4.9567466    6.2050352    2.3649729 
 2640000   0.79654451  -0.20033002    1.2517578    1.1244921   -4.9521385    6.2038963    2.3762499 
 2650000   0.80074638  -0.13072079     1.268811    1.1304239   -4.9388073    6.2076183    2.3992349 
 2660000   0.80075943  -0.11739479    1.2536614    1.1304423   -4.9525305    6.2061919    2.3841038 
 2670000   0.79909009  -0.13721905    1.2441574    1.1280857   -4.9561464    6.2003038    2.3722431 
 2680000   0.79549904  -0.18684274    1.2460831    1.1230162   -4.9555137    6.2015967    2.3690992 
 2690000   0.79990952  -0.16040192     1.262269    1.1292425   -4.9408637    6.2031327    2.3915115 
 2700000   0.79566229  -0.13546529     1.252025    1.1232466   -4.9520876    6.2041126    2.3752716 
 2710000   0.80007313  -0.22140174    1.2511271    1.1294735     -4.95059    6.2017171    2.3806006 
 2720000   0.80322145  -0.13421069    1.2601268     1.133918   -4.9430718    6.2031986    2.3940448 
 2730000   0.80105014 -0.066872706    1.2545425    1.1308527   -4.9479819    6.2025244    2.3853952 
 2740000   0.80112344 -0.075785882    1.2532668    1.1309562    -4.950871    6.2041377     2.384223 
 2750000   0.79668908   -0.1274236    1.2598231    1.1246962   -4.9443104    6.2041334    2.3845192 
 2760000   0.80544789  -0.16256913    1.2573615    1.1370611   -4.9461139    6.2034754    2.3944226 
 2770000   0.79525524 -0.097786911     1.252405     1.122672    -4.951617     6.204022     2.375077 
 2780000   0.80538681  -0.14297553    1.2378993    1.1369749    -4.966743    6.2046423    2.3748742 
 2790000   0.79761241  -0.10254428     1.264072    1.1259997   -4.9400274    6.2040994    2.3900717 
 2800000   0.80078457  -0.20200096      1.26694    1.1304778   -4.9352638    6.2022038    2.3974178 
 2810000    0.8010527  -0.12395012    1.2494091    1.1308564   -4.9590601    6.2084691    2.3802654 
 2820000   0.79849121  -0.17264816    1.2574174    1.1272403   -4.9463415    6.2037589    2.3846577 
 2830000   0.80451095  -0.18327155    1.2555062    1.1357384   -4.9496742    6.2051805    2.3912446 
 2840000   0.79963133  -0.11194141    1.2640046    1.1288498   -4.9418605    6.2058651    2.3928544 
 2850000   0.80096018   -0.1442484     1.249306    1.1307257   -4.9563784    6.2056844    2.3800317 
 2860000   0.80304572  -0.11734432    1.2447612    1.1336699   -4.9580443    6.2028056    2.3784312 
 2870000   0.80056162  -0.14550762    1.2764432    1.1301631   -4.9279298     6.204373    2.4066063 
 2880000    0.8041462  -0.07514491    1.2528345    1.1352235   -4.9515267    6.2043612     2.388058 
 2890000   0.79892688  -0.22207383     1.263183    1.1278553   -4.9411626    6.2043456    2.3910383 
 2900000   0.80060081   -0.1745316    1.2475948    1.1302184   -4.9542966    6.2018914    2.3778133 
 2910000   0.79802624  -0.16847442    1.2576834    1.1265839   -4.9442691    6.2019526    2.3842673 
 2920000   0.79878019  -0.14459911     1.252794    1.1276482   -4.9538082    6.2066023    2.3804423 
 2930000   0.80210992  -0.20152865    1.2462043    1.1323489     -4.95487    6.2010742    2.3785531 
 2940000   0.80535305  -0.15637879    1.2480164    1.1369272   -4.9557042    6.2037206    2.3849436 
 2950000   0.80541613  -0.18596448    1.2513862    1.1370163   -4.9529532    6.2043394    2.3884025 
 2960000   0.80469047  -0.12810177    1.2512333    1.1359918    -4.952329    6.2035624    2.3872252 
 2970000   0.80467648  -0.13914177    1.2595811    1.1359721   -4.9435255    6.2031066    2.3955532 
 2980000   0.79793302 -0.068787878    1.2684798    1.1264523   -4.9386895    6.2071693    2.3949321 
 2990000   0.80927637  -0.18752998     1.250743    1.1424658   -4.9514719    6.2022149    2.3932088 
 3000000   0.80468235  -0.12902832    1.2503735    1.1359804   -4.9511341    6.2015076    2.3863539 
 3010000   0.80116177  -0.13757724    1.2428865    1.1310103   -4.9605056    6.2033922    2.3738969 
 3020000   0.79594954  -0.16635517    1.2502299    1.1236521   -4.9509386    6.2011685     2.373882 
 3030000   0.79832881  -0.18081042     1.246635     1.127011   -4.9532472    6.1998822     2.373646 
 3040000   0.79959478  -0.22974114    1.2638075    1.1287982   -4.9424513    6.2062588    2.3926057 
 3050000   0.80225115  -0.18897134    1.2669588    1.1325482   -4.9367686    6.2037274     2.399507 
 3060000    0.8015216 -0.080588279    1.2580893    1.1315183      -4.9441    6.2021892    2.3896076 
 3070000   0.80184354  -0.10382505    1.2653197    1.1319728   -4.9410587    6.2063784    2.3972925 
 3080000   0.80272718 -0.079713916    1.2517131    1.1332202   -4.9515841    6.2032972    2.3849334 
 3090000   0.80246213   -0.1601049    1.2553271    1.1328461   -4.9489347    6.2042619    2.3881732 
 3100000   0.80333277  -0.12454898    1.2570179    1.1340752     -4.94887    6.2058879     2.391093 
 3110000   0.80354978 -0.081519566    1.2520717    1.1343815   -4.9522953     6.204367    2.3864532 
 3120000   0.80003215  -0.16337398    1.2662183    1.1294156    -4.936687    6.2029052    2.3956339 
 3130000   0.79788564   -0.1765207     1.246943    1.1263854   -4.9571597    6.2041028    2.3733284 
 3140000   0.79768172  -0.10319567    1.2566703    1.1260975   -4.9482878    6.2049581    2.3827678 
 3150000   0.80004839  -0.15629302     1.254045    1.1294386   -4.9515026    6.2055475    2.3834835 
 3160000   0.79681875 -0.056386347    1.2469557    1.1248792   -4.9546107    6.2015664    2.3718349 
 3170000   0.80262856  -0.17952123    1.2655993     1.133081   -4.9369879    6.2025871    2.3986803 
 3180000    0.7963174  -0.12863042    1.2488094    1.1241715    -4.954832    6.2036414    2.3729809 
 3190000   0.79119727   -0.1841366    1.2618081    1.1169433   -4.9441061    6.2059142    2.3787515 
 3200000   0.78958544  -0.17502866    1.2651369    1.1146679   -4.9386388    6.2037756    2.3798047 
 3210000    0.7981985  -0.13932917    1.2631014     1.126827   -4.9437192    6.2068206    2.3899284 
 3220000    0.7973357  -0.21231109    1.2596657     1.125609   -4.9445271    6.2041928    2.3852748 
 3230000   0.80234467  -0.17394085    1.2322342    1.1326802   -4.9706752    6.2029094    2.3649144 
 3240000   0.79822887  -0.12418714    1.2472555    1.1268699   -4.9536131    6.2008685    2.3741254 
 3250000   0.80167099  -0.14746481    1.2635517    1.1317292   -4.9423971    6.2059488    2.3952809 
 3260000   0.79497971  -0.18792463    1.2547422     1.122283   -4.9483231    6.2030653    2.3770253 
 3270000   0.79993188  -0.21742319    1.2537266    1.1292741   -4.9469362    6.2006628    2.3830007 
 3280000   0.80482328  -0.16157283    1.2569804    1.1361793   -4.9462154    6.2031958    2.3931597 
 3290000   0.79613275 -0.094084395    1.2606358    1.1239108   -4.9417157    6.2023515    2.3845466 
 3300000   0.80178988 -0.049283026    1.2571209     1.131897   -4.9456079    6.2027287    2.3890179 
 3310000   0.79292442  -0.11876222    1.2666659    1.1193816   -4.9415395    6.2082054    2.3860475 
 3320000   0.79497098  -0.17437784     1.255605    1.1222707   -4.9463528    6.2019578    2.3778757 
 3330000   0.80050858  -0.13961039    1.2467552    1.1300882   -4.9577908     6.204546    2.3768434 
 3340000   0.79545083  -0.15898534    1.2713592    1.1229481   -4.9336481    6.2050073    2.3943073 
 3350000   0.79856014 -0.081314099    1.2642744    1.1273376   -4.9377145    6.2019889     2.391612 
 3360000    0.8031143  -0.17847835    1.2566331    1.1337667    -4.943773    6.2004061    2.3903999 
 3370000   0.79465834  -0.22702351    1.2530384    1.1218293   -4.9484131    6.2014515    2.3748678 
 3380000   0.80297189 -0.031304381    1.2646651    1.1335657   -4.9417371    6.2064022    2.3982308 
 3390000   0.80029112 -0.087904112      1.26448    1.1297812   -4.9399528    6.2044328    2.3942612 
 3400000   0.79766457  -0.14322491    1.2485253    1.1260733   -4.9531239    6.2016493    2.3745986 
 3410000   0.79679557 -0.094153777    1.2616655    1.1248465    -4.939537    6.2012025     2.386512 
 3420000    0.8039854 -0.077166795    1.2504982    1.1349965   -4.9547003    6.2051985    2.3854947 
 3430000   0.80664326  -0.17391082    1.2552953    1.1387486   -4.9499579    6.2052532    2.3940439 
 3440000   0.79900583 -0.080994936    1.2520434    1.1279668   -4.9474226     6.199466    2.3800102 
 3450000   0.79818416  -0.10976787    1.2435696    1.1268068   -4.9618016    6.2053712    2.3703764 
 3460000   0.79881502  -0.11845951     1.262554    1.1276974   -4.9437845    6.2063386    2.3902514 
 3470000   0.80139487  -0.13042021    1.2620916    1.1313394   -4.9410587    6.2031503     2.393431 
 3480000   0.79448065 -0.070682303    1.2416399    1.1215785   -4.9612876    6.2029274    2.3632184 
 3490000   0.80222903  -0.12633235    1.2528198     1.132517   -4.9486582     6.201478    2.3853368 
 3500000   0.80497836  -0.15513896    1.2632248    1.1363983    -4.941025    6.2042498     2.399623 
 3510000   0.80295643 -0.094839061    1.2490546    1.1335439   -4.9547979    6.2038525    2.3825985 
 3520000   0.80112546  -0.13770954     1.249958    1.1309591   -4.9542747    6.2042326     2.380917 
 3530000   0.80001611  -0.10935923    1.2538857     1.129393   -4.9519311    6.2058168    2.3832787 
 3540000   0.80033388  -0.15342584    1.2407636    1.1298416   -4.9620653    6.2028288    2.3706051 
 3550000   0.79556865  -0.17205309    1.2584849    1.1231145   -4.9482656    6.2067505    2.3815993 
 3560000    0.8005563  -0.18584596    1.2569345    1.1301556   -4.9461301    6.2030646    2.3870901 
 3570000   0.80453964 -0.051781871    1.2560008    1.1357789   -4.9500974    6.2060981    2.3917797 
 3580000   0.79436042  -0.09164326    1.2657643    1.1214088   -4.9387169    6.2044812    2.3871731 
 3590000   0.80204084  -0.13538399    1.2556035    1.1322513   -4.9489776    6.2045811    2.3878548 
 3600000   0.79352982  -0.15991573    1.2644206    1.1202362   -4.9386947    6.2031152    2.3846568 
 3610000   0.80401906  -0.17119252    1.2596184     1.135044   -4.9460114    6.2056297    2.3946624 
 3620000   0.80488602  -0.11558701    1.2477953    1.1362679   -4.9576212    6.2054164    2.3840632 
 3630000   0.80169542  -0.19427687    1.2524452    1.1317637   -4.9519884    6.2044336    2.3842089 
 3640000   0.80094429  -0.14292252    1.2501749    1.1307033   -4.9527197    6.2028946    2.3808782 
 3650000    0.7990549  -0.12182446    1.2590492     1.128036   -4.9454991    6.2045483    2.3870852 
 3660000   0.79840808  -0.21424811    1.2574877    1.1271229   -4.9459508    6.2034385    2.3846106 
 3670000   0.80232288  -0.14590717     1.248082    1.1326495   -4.9572391     6.205321    2.3807314 
 3680000   0.80090448  -0.12849469    1.2575436    1.1306471   -4.9461752    6.2037188    2.3881907 
 3690000   0.79807571 -0.034487092    1.2593371    1.1266537   -4.9450913    6.2044284    2.3859908 
 3700000   0.80080189  -0.17170824    1.2493309    1.1305023   -4.9537965    6.2031274    2.3798332 
 3710000   0.80510581  -0.12769394    1.2474637    1.1365782   -4.9546441    6.2021079    2.3840419 
 3720000   0.80937493  -0.10394461    1.2548859     1.142605   -4.9493063    6.2041923    2.3974909 
 3730000   0.79663699  -0.13767332    1.2486093    1.1246226   -4.9549803    6.2035896     2.373232 
 3740000   0.79956891  -0.19354135    1.2576276    1.1287617    -4.946238    6.2038656    2.3863893 
 3750000   0.80095331  -0.12014926    1.2551501     1.130716   -4.9501626    6.2053127    2.3858662 
 3760000   0.80085311  -0.17128091     1.249129    1.1305746    -4.951199    6.2003279    2.3797036 
 3770000   0.79970551  -0.17502255    1.2742607    1.1289545    -4.931456    6.2057167    2.4032152 
 3780000   0.80203928  -0.16336124    1.2438246    1.1322491   -4.9603784     6.204203    2.3760737 
 3790000   0.80184514   -0.1422578    1.2488627    1.1319751   -4.9538378    6.2027005    2.3808378 
 3800000   0.80250597  -0.15873016    1.2536196     1.132908   -4.9507441    6.2043638    2.3865276 
 3810000   0.80030944  -0.13157745    1.2511088    1.1298071   -4.9525906    6.2036994    2.3809159 
 3820000   0.80370314  -0.17766599    1.2414276     1.134598   -4.9613589    6.2027865    2.3760256 
 3830000   0.80239526  -0.11872599    1.2606345    1.1327517   -4.9448563    6.2054908    2.3933862 
 3840000   0.80893085  -0.17499145    1.2336471     1.141978   -4.9684467    6.2020937    2.3756251 
 3850000   0.80007327  -0.11503723    1.2442688    1.1294737   -4.9543618    6.1986306    2.3737424 
 3860000   0.79756475  -0.17322731    1.2554923    1.1259324   -4.9478268    6.2033191    2.3814247 
 3870000   0.79542147  -0.15470574    1.2681248    1.1229067   -4.9377519    6.2058767    2.3910315 
 3880000   0.79486435  -0.13316502    1.2532815    1.1221202   -4.9499492    6.2032308    2.3754017 
 3890000   0.78982517  -0.14566701    1.2446741    1.1150063   -4.9584941    6.2031682    2.3596804 
 3900000   0.79668209  -0.16414894    1.2583808    1.1246863   -4.9472276    6.2056083    2.3830671 
 3910000   0.80739263  -0.19520968    1.2552572    1.1398065   -4.9456115    6.2008687    2.3950637 
 3920000   0.79677006  -0.14235639    1.2698443    1.1248105    -4.937439    6.2072833    2.3946548 
 3930000   0.81023146  -0.17596825    1.2617801    1.1438141   -4.9450367    6.2068168    2.4055943 
 3940000   0.80046649  -0.15417659    1.2655056    1.1300288   -4.9403844      6.20589    2.3955344 
 3950000   0.80343301 -0.097109687    1.2544999    1.1342167   -4.9489798    6.2034797    2.3887166 
 3960000   0.80498181  -0.14867858    1.2451606    1.1364031    -4.958998    6.2041586    2.3815637 
 3970000   0.80755299  -0.10617286    1.2656922    1.1400329   -4.9378307    6.2035229    2.4057251 
 3980000   0.79455378  -0.14009742    1.2603879    1.1216817   -4.9410797    6.2014676    2.3820696 
 3990000   0.80162333  -0.18651885    1.2592113    1.1316619   -4.9462021    6.2054134    2.3908733 
 4000000   0.80266195  -0.16863601    1.2628625    1.1331281   -4.9419042    6.2047667    2.3959906 
 4010000   0.80391589  -0.13088237    1.2549365    1.1348984   -4.9493109    6.2042475    2.3898349 
 4020000   0.80223166  -0.11166801    1.2624606    1.1325207   -4.9410938    6.2035543    2.3949813 
 4030000    0.8011375 -0.097394039    1.2643063    1.1309761   -4.9410373    6.2053435    2.3952823 
 4040000    0.8035509  -0.11285823    1.2587238    1.1343831   -4.9441136    6.2028374    2.3931069 
 4050000   0.80273156  -0.12789631    1.2538411    1.1332264   -4.9499814    6.2038226    2.3870676 
 4060000   0.80265307 -0.096751706    1.2546188    1.1331156   -4.9450276    6.1996465    2.3877344 
 4070000   0.79622762  -0.16929134    1.2507773    1.1240447   -4.9547977     6.205575     2.374822 
 4080000   0.80229443  -0.15301754    1.2403163    1.1326093   -4.9667126    6.2070288    2.3729256 
 4090000   0.79100041   -0.1621392    1.2486603    1.1166654   -4.9546489    6.2033093    2.3653257 
 4100000   0.79992766 -0.033180228     1.255747    1.1292681   -4.9500082    6.2057552    2.3850151 
 4110000   0.79645536 -0.088595446    1.2566597    1.1243662   -4.9479282    6.2045879     2.381026 
 4120000   0.80591407  -0.12269112    1.2569248    1.1377192   -4.9465217    6.2034465     2.394644 
 4130000   0.79773963  -0.18119477    1.2678739    1.1261793   -4.9358036    6.2036775    2.3940532 
 4140000   0.79782761  -0.11579429    1.2400809    1.1263034   -4.9674642    6.2075451    2.3663843 
 4150000   0.80096094  -0.13700034     1.250773    1.1307268   -4.9515342    6.2023072    2.3814999 
 4160000   0.79504618  -0.17165783    1.2680852    1.1223769   -4.9384917    6.2065769    2.3904621 
 4170000   0.79533336  -0.10598565    1.2610893    1.1227823   -4.9468667     6.207956    2.3838716 
 4180000    0.7974798  -0.11368514    1.2531592    1.1258124   -4.9524374    6.2055966    2.3789717 
 4190000   0.80039189  -0.11937533    1.2523168    1.1299235   -4.9496882     6.202005    2.3822403 
 4200000   0.79692474 -0.071660701    1.2469743    1.1250289   -4.9549479    6.2019222    2.3720032 
 4210000   0.80616069  -0.19153386    1.2572445    1.1380674   -4.9438695     6.201114    2.3953119 
 4220000   0.79793742  -0.13087886    1.2575948    1.1264585   -4.9458272     6.203422    2.3840533 
 4230000    0.8004896  -0.12889972    1.2589585    1.1300614   -4.9437524     6.202711      2.38902 
 4240000   0.79720267 -0.069907282    1.2524043    1.1254212   -4.9520481    6.2044524    2.3778255 
 4250000   0.80151248   -0.1451925    1.2480894    1.1315054   -4.9579116     6.206001    2.3795948 
 4260000   0.79857524  -0.12014527    1.2449495    1.1273589   -4.9602158    6.2051653    2.3723083 
 4270000   0.79894444   -0.2011965    1.2503447    1.1278801   -4.9554633     6.205808    2.3782248 
 4280000   0.80400186  -0.14415165    1.2617925    1.1350197   -4.9424732    6.2042657    2.3968122 
 4290000   0.79799441  -0.19872464    1.2679987    1.1265389    -4.938666    6.2066648    2.3945377 
 4300000   0.79899337  -0.10681174    1.2570155    1.1279492   -4.9461752    6.2031907    2.3849647 
 4310000   0.79687275  -0.14103556     1.263823    1.1249555   -4.9399721    6.2037951    2.3887785 
 4320000   0.79685901  -0.19443028    1.2507733    1.1249361   -4.9517753    6.2025486    2.3757093 
 4330000   0.80045334  -0.15193023    1.2508693    1.1300102   -4.9522295    6.2030989    2.3808796 
 4340000    0.7994391 -0.063459242    1.2580876    1.1285784     -4.94461    6.2026976     2.386666 
 4350000   0.79985175  -0.13547083    1.2728144     1.129161    -4.932812    6.2056264    2.4019753 
 4360000    0.7982663  -0.15304761    1.2505817    1.1269228   -4.9493873     6.199969    2.3775044 
 4370000   0.79919453  -0.12641051    1.2602017    1.1282331   -4.9421459    6.2023476    2.3884348 
 4380000   0.80046589  -0.16469467    1.2735249    1.1300279   -4.9303996    6.2039245    2.4035529 
 4390000   0.79883446  -0.18877875     1.243825    1.1277248   -4.9591775    6.2030025    2.3715499 
 4400000   0.79879609     -0.14833    1.2678235    1.1276707   -4.9352519    6.2030753    2.3954941 
 4410000   0.80501289  -0.15808078     1.251766     1.136447   -4.9551103    6.2068762     2.388213 
 4420000   0.79770016  -0.15843577    1.2683647    1.1261235   -4.9333989    6.2017636    2.3944883 
 4430000   0.80152078  -0.14488379    1.2518834    1.1315172   -4.9505449    6.2024282    2.3834005 
 4440000   0.79703264  -0.15341729    1.2583333    1.1251812   -4.9480613    6.2063946    2.3835145 
 4450000   0.80120859   -0.1959102    1.2672603    1.1310764   -4.9383366    6.2055969    2.3983367 
 4460000   0.80265268  -0.13789813    1.2607915    1.1331151   -4.9409749    6.2017663    2.3939065 
 4470000   0.80218585 -0.068124415    1.2528828     1.132456   -4.9484045    6.2012873    2.3853389 
 4480000   0.80294673  -0.19521008    1.2589136    1.1335302   -4.9461796    6.2050932    2.3924438 
 4490000   0.79861549  -0.19424939    1.2359969    1.1274157   -4.9677866    6.2037835    2.3634126 
 4500000   0.80747282 -0.023015229    1.2715485    1.1399197   -4.9336267    6.2051752    2.4114682 
 4510000   0.79864393   -0.1514884    1.2541455    1.1274559   -4.9497897    6.2039352    2.3816014 
 4520000   0.80780718 -0.064582972    1.2560613    1.1403917   -4.9475529    6.2036142     2.396453 
 4530000   0.79613136 -0.073066871    1.2605587    1.1239088   -4.9437457    6.2043044    2.3844675 
 4540000   0.80390557  -0.14024896    1.2295779    1.1348838   -4.9707959    6.2003738    2.3644617 
 4550000   0.79907489   -0.1192962    1.2527724    1.1280643   -4.9541416    6.2069139    2.3808366 
 4560000   0.80690093  -0.10015994    1.2412371    1.1391124   -4.9633271    6.2045642    2.3803494 
 4570000   0.79591119   -0.1339515     1.241858     1.123598   -4.9633117    6.2051697     2.365456 
 4580000   0.80421643  -0.16744839    1.2480528    1.1353226   -4.9542892     6.202342    2.3833755 
 4590000    0.7953836  -0.14103602    1.2466121    1.1228532   -4.9565562    6.2031683    2.3694653 
 4600000   0.80101265  -0.17835456     1.248083    1.1307998   -4.9552467    6.2033297    2.3788828 
 4610000   0.79302217  -0.16684425     1.263144    1.1195195   -4.9445038    6.2076478    2.3826635 
 4620000   0.80299723  -0.17044295    1.2626095    1.1336015   -4.9434146    6.2060241    2.3962109 
 4630000    0.7981491 -0.088520635    1.2723348    1.1267573   -4.9305482    6.2028829    2.3990921 
 4640000   0.79694482  -0.17843623    1.2656932    1.1250572   -4.9360285    6.2017217    2.3907504 
 4650000   0.79628306  -0.14140753    1.2547917     1.124123   -4.9524127    6.2072044    2.3789147 
 4660000   0.79620648  -0.16053942    1.2460288    1.1240149   -4.9595769    6.2056057    2.3700437 
 4670000   0.80723636  -0.12402814    1.2560077    1.1395859   -4.9483807    6.2043884    2.3955936 
 4680000    0.8006915  -0.17564285     1.255517    1.1303464   -4.9472794    6.2027964    2.3858634 
 4690000   0.79906543  -0.12174876     1.246649    1.1280509    -4.957066     6.203715    2.3746999 
 4700000    0.8004719 -0.095877939    1.2639245    1.1300364   -4.9427293    6.2066538    2.3939609 
 4710000   0.79245215 -0.097606503    1.2561029    1.1187148   -4.9486505    6.2047534    2.3748178 
 4720000   0.79785731  -0.12336529    1.2448565    1.1263454   -4.9570187    6.2018753    2.3712019 
 4730000   0.80098634  -0.14988968    1.2604016    1.1307627   -4.9429222    6.2033238    2.3911642 
 4740000   0.79607067  -0.15195409    1.2537988    1.1238232   -4.9511382    6.2049369    2.3776219 
 4750000   0.80294925 -0.095032287    1.2408073    1.1335337   -4.9592689    6.2000762    2.3743411 
 4760000   0.80041031  -0.17448835    1.2633532    1.1299495    -4.937488    6.2008412    2.3933026 
 4770000   0.80365065  -0.14860063    1.2497479    1.1345239   -4.9513596    6.2011074    2.3842718 
 4780000   0.79462181 -0.089696256    1.2570907    1.1217778   -4.9476471    6.2047378    2.3788684 
 4790000   0.80746897  -0.17610325    1.2561728    1.1399143    -4.946125    6.2022978    2.3960871 
 4800000   0.79741233  -0.17581061    1.2565314    1.1257172   -4.9445835    6.2011149    2.3822486 
 4810000   0.79554435  -0.11416763    1.2482055    1.1230801   -4.9567216    6.2049272    2.3712857 
 4820000   0.80062591   -0.1535271    1.2709196    1.1302538   -4.9348713    6.2057909    2.4011735 
 4830000   0.79754023  -0.16184193    1.2578444    1.1258978   -4.9458081    6.2036525    2.3837421 
 4840000   0.79568749 -0.065137847    1.2685428    1.1232822    -4.937098    6.2056409    2.3918251 
 4850000   0.80663982 -0.085202672    1.2423263    1.1387438   -4.9599922    6.2023185    2.3810701 
 4860000   0.79970649  -0.16085848    1.2417899    1.1289559   -4.9576771     6.199467    2.3707458 
 4870000   0.79811641  -0.10845756    1.2533117    1.1267112   -4.9523195    6.2056312    2.3800228 
 4880000   0.80613032  -0.17684501    1.2420949    1.1380245    -4.964888    6.2069829    2.3801194 
 4890000   0.79912984  -0.13706343    1.2504643    1.1281418   -4.9512344    6.2016987    2.3786061 
 4900000    0.7990497    -0.153371    1.2672928    1.1280287   -4.9390272      6.20632    2.3953215 
 4910000    0.8019971 -0.095773603    1.2590981    1.1321896   -4.9467418    6.2058399    2.3912877 
 4920000   0.79609657 -0.085144748    1.2544269    1.1238597   -4.9479455    6.2023724    2.3782867 
 4930000   0.79828002   -0.1357565     1.245363    1.1269421   -4.9580101    6.2033731    2.3723051 
 4940000   0.79631839 -0.093272089    1.2499895    1.1241729   -4.9539458    6.2039353    2.3741623 
 4950000   0.80627325   -0.1979554    1.2542929    1.1382263   -4.9484773    6.2027702    2.3925191 
 4960000   0.79911744 -0.087922241    1.2486916    1.1281243   -4.9533388    6.2020305     2.376816 
 4970000   0.80351798  -0.10566408    1.2569048    1.1343366   -4.9490697    6.2059745    2.3912414 
 4980000    0.7986316 -0.095383851    1.2520296    1.1274385   -4.9510911    6.2031208    2.3794681 
 4990000   0.79365776  -0.15300104    1.2522791    1.1204168   -4.9523965    6.2046756    2.3726959 
 5000000   0.79997872  -0.14567905    1.2617739    1.1293402   -4.9446079    6.2063817    2.3911141 
 5010000   0.80529718  -0.14020293    1.2521402    1.1368483   -4.9507647    6.2029049    2.3889885 
 5020000   0.79994638  -0.10025371    1.2465102    1.1292945   -4.9581876    6.2046978    2.3758047 
 5030000   0.79626279  -0.16099492    1.2510958    1.1240944   -4.9544008    6.2054967    2.3751902 
 5040000   0.80143853  -0.18238474    1.2551568     1.131401   -4.9473344    6.2024912    2.3865578 
 5050000   0.79671344  -0.16276033    1.2625013    1.1247306    -4.942873    6.2053743    2.3872318 
 5060000   0.80515977  -0.15701053    1.2489931    1.1366544    -4.954216    6.2032092    2.3856475 
 5070000   0.79835345   -0.1530449    1.2517094    1.1270458   -4.9519523    6.2036617    2.3787552 
 5080000   0.79548013   -0.1877826    1.2530715    1.1229895   -4.9480489    6.2011205     2.376061 
 5090000   0.80119499  -0.11221908    1.2565198    1.1310572   -4.9474994    6.2040192     2.387577 
 5100000   0.79778454 -0.097498068    1.2458038    1.1262427   -4.9570229    6.2028267    2.3720465 
 5110000   0.80134069 -0.096222255    1.2513254    1.1312629    -4.954351    6.2056764    2.3825883 
 5120000   0.80340099   -0.1600769    1.2542142    1.1341715   -4.9527933    6.2070075    2.3883857 
 5130000   0.79456587  -0.19526721    1.2502883    1.1216988   -4.9535872    6.2038755    2.3719871 
 5140000    0.8038153  -0.14827637    1.2495801    1.1347563   -4.9549005    6.2044806    2.3843364 
 5150000   0.79306352  -0.14983986    1.2498194    1.1195779    -4.953394    6.2032133    2.3693973 
 5160000   0.79195641  -0.18817289    1.2550081     1.118015   -4.9465868    6.2015949    2.3730231 
 5170000   0.79497498  -0.12311146    1.2490414    1.1222764    -4.954332    6.2033734    2.3713178 
 5180000    0.8014119 -0.092674827    1.2762095    1.1313634   -4.9302248    6.2064343    2.4075729 
 5190000   0.79845485  -0.10672375     1.268395    1.1271889   -4.9342323    6.2026273    2.3955839 
 5200000   0.80056688  -0.22172706     1.255083    1.1301705   -4.9479136    6.2029966    2.3852535 
 5210000   0.80231354  -0.15311103    1.2573712    1.1326363   -4.9484672    6.2058384    2.3900075 
 5220000    0.8043054  -0.14584262    1.2600381    1.1354482   -4.9466403    6.2066784    2.3954864 
 5230000   0.79812721 -0.074870696    1.2494561    1.1267264   -4.9520235    6.2014796    2.3761825 
 5240000   0.79211657  -0.14798722    1.2443594    1.1182411   -4.9615824    6.2059418    2.3626005 
 5250000   0.80854902 -0.088599173    1.2568389     1.141439   -4.9467966    6.2036355    2.3982779 
 5260000   0.79863222  -0.12630614    1.2622088    1.1274393   -4.9396398    6.2018486    2.3896482 
 5270000    0.8001423  -0.23456429    1.2451313    1.1295711   -4.9601717    6.2053029    2.3747024 
 5280000   0.80319524  -0.17176638    1.2399031     1.133881    -4.964087    6.2039901    2.3737841 
 5290000   0.79734412  -0.10658253    1.2471824    1.1256209   -4.9557852    6.2029676    2.3728033 
 5300000   0.79578199  -0.20867213    1.2567931    1.1234156   -4.9483142    6.2051073    2.3802087 
 5310000   0.79613818  -0.16882025    1.2364188    1.1239185    -4.968022    6.2044408    2.3603372 
 5320000   0.79756751  -0.11971547    1.2634069    1.1259363   -4.9396388    6.2030457    2.3893431 
 5330000   0.80059352  -0.18852083    1.2515933    1.1302081   -4.9518694    6.2034627    2.3818014 
 5340000   0.80815998  -0.15003482     1.241826    1.1408898   -4.9602836    6.2021097    2.3827158 
 5350000   0.80438143  -0.14086072    1.2372073    1.1355556   -4.9698022    6.2070095    2.3727629 
 5360000   0.80418895  -0.08781308     1.247199    1.1352838   -4.9563271    6.2035261    2.3824829 
 5370000   0.80425539  -0.15756362    1.2563992    1.1353776   -4.9480743    6.2044735    2.3917768 
 5380000   0.79744743  -0.15040634    1.2506498    1.1257668   -4.9522603    6.2029101    2.3764166 
 5390000    0.8005088  -0.15635897     1.261244    1.1300885   -4.9441637    6.2054076    2.3913325 
 5400000   0.79848863  -0.11159138     1.240955    1.1272366   -4.9626553    6.2036102    2.3681916 
 5410000   0.79614195  -0.18276219    1.2613137    1.1239238   -4.9448183     6.206132    2.3852375 
 5420000   0.80074057  -0.12915907     1.262391    1.1304157   -4.9411224    6.2035134    2.3928067 
 5430000   0.79499237  -0.20903113    1.2577286    1.1223009   -4.9462383    6.2039669    2.3800295 
 5440000   0.80754605 -0.088308545    1.2600745    1.1400231   -4.9484118    6.2084863    2.4000976 
 5450000   0.79973288  -0.15527415    1.2604188    1.1289931   -4.9435074    6.2039262    2.3894119 
 5460000    0.7970338  -0.10237831    1.2537952    1.1251828   -4.9518802    6.2056754     2.378978 
 5470000   0.79864854  -0.14009516    1.2583145    1.1274624   -4.9463851    6.2046996    2.3857768 
 5480000   0.80215703  -0.17527386    1.2692161    1.1324153    -4.935044    6.2042602    2.4016315 
 5490000   0.79326039  -0.14175566    1.2594114    1.1198558   -4.9467247    6.2061361    2.3792672 
 5500000   0.79991195  -0.15485641    1.2562533    1.1292459   -4.9454572    6.2017105    2.3854992 
 5510000   0.79221753  -0.11728004    1.2445836    1.1183836   -4.9588179    6.2034015    2.3629672 
 5520000   0.79525023  -0.10545503    1.2664665    1.1226649   -4.9389684    6.2054349    2.3891314 
 5530000   0.80053195  -0.15617546    1.2596811    1.1301212   -4.9415082    6.2011894    2.3898023 
 5540000    0.8043321  -0.19584783     1.254684    1.1354859   -4.9500971    6.2047811    2.3901699 
 5550000   0.79931873  -0.11072338    1.2565847    1.1284085   -4.9481857    6.2047704    2.3849932 
 5560000   0.80068586  -0.07291185      1.25951    1.1303385   -4.9459216    6.2054316    2.3898484 
 5570000    0.8036536  -0.12280441    1.2565897    1.1345281   -4.9491626    6.2057523    2.3911178 
 5580000   0.80457442  -0.12978106    1.2712851     1.135828   -4.9338658    6.2051509    2.4071131 
 5590000   0.80683612  -0.16833868     1.255158    1.1390209   -4.9511247    6.2062827    2.3941789 
 5600000   0.80138459  -0.10547564    1.2657128    1.1313249   -4.9362987    6.2020115    2.3970376 
 5610000     0.800761  -0.18935419    1.2588376    1.1304445   -4.9450839    6.2039215    2.3892822 
 5620000   0.79615845  -0.17282511    1.2436866    1.1239471   -4.9603758    6.2040624    2.3676336 
 5630000   0.80789263  -0.15389565    1.2559611    1.1405124   -4.9466214    6.2025825    2.3964734 
 5640000   0.79757369  -0.21640812    1.2564694     1.125945   -4.9453343    6.2018038    2.3824144 
 5650000   0.80057022  -0.19990819     1.255229    1.1301752   -4.9508216    6.2060505    2.3854042 
 5660000   0.79528518  -0.17190868    1.2516819    1.1227143   -4.9514758    6.2031577    2.3743962 
 5670000   0.79813386  -0.16871194    1.2682907    1.1267358   -4.9361011    6.2043918    2.3950265 
 5680000   0.79948163  -0.10165097    1.2536745    1.1286384   -4.9513512    6.2050258     2.382313 
 5690000   0.80085723  -0.15488927     1.248985    1.1305804   -4.9575644    6.2065494    2.3795654 
 5700000   0.80055815  -0.12518504    1.2569546    1.1301582   -4.9475187    6.2044733    2.3871128 
 5710000   0.79670346  -0.10441085     1.245056    1.1247165   -4.9561242    6.2011801    2.3697725 
 5720000    0.7985502  -0.14317096    1.2610547    1.1273235   -4.9432204    6.2042751    2.3883783 
 5730000    0.8047015  -0.15847533    1.2597358    1.1360074   -4.9445971    6.2043328    2.3957432 
 5740000    0.8008445 -0.082375297    1.2618542    1.1305624   -4.9424919    6.2043462    2.3924167 
 5750000   0.79927352  -0.19691427    1.2516864    1.1283447   -4.9524851    6.2041715     2.380031 
 5760000   0.80327661  -0.12840599    1.2423873    1.1339959   -4.9617556    6.2041429    2.3763832 
 5770000   0.80508956 -0.098428858    1.2440672    1.1365552   -4.9607084    6.2047757    2.3806225 
 5780000   0.79352057  -0.10239647    1.2424811    1.1202231   -4.9618092    6.2042904    2.3627043 
 5790000   0.79997576  -0.18317164    1.2523222     1.129336   -4.9514557    6.2037779    2.3816583 
 5800000   0.79389561  -0.18243458    1.2661777    1.1207526   -4.9368551    6.2030328    2.3869303 
 5810000   0.79402808  -0.19338968     1.256023    1.1209396   -4.9463399    6.2023629    2.3769626 
 5820000   0.79611296  -0.15217459    1.2538907    1.1238829   -4.9504087    6.2042994    2.3777736 
 5830000   0.79674542  -0.12388285    1.2440682    1.1247757   -4.9593493    6.2034175    2.3688439 
 5840000   0.79971849  -0.15858746    1.2632113    1.1289728   -4.9410758    6.2042871    2.3921841 
 5850000   0.79955117  -0.12113976    1.2597073    1.1287366   -4.9429263    6.2026335    2.3884439 
 5860000   0.80526466   -0.1200492    1.2494195    1.1368024   -4.9539827    6.2034022    2.3862219 
 5870000   0.80153895  -0.15742192    1.2570516    1.1315428   -4.9448009    6.2018525    2.3885944 
 5880000   0.79856311  -0.20156579    1.2526819    1.1273418   -4.9527217    6.2054036    2.3800237 
 5890000    0.8019014  -0.13831499    1.2511895    1.1320545   -4.9532905      6.20448     2.383244 
 5900000   0.80705617  -0.15839587    1.2550224    1.1393315   -4.9510841    6.2061065    2.3943539 
 5910000   0.79625187  -0.11655275     1.250035     1.124079   -4.9525736    6.2026086     2.374114 
 5920000    0.7981793 -0.083204047     1.263986    1.1267999   -4.9396104    6.2035963    2.3907859 
 5930000   0.79957288  -0.12733005    1.2716837    1.1287673   -4.9350356    6.2067193     2.400451 
 5940000   0.79607641  -0.18683146     1.250294    1.1238313   -4.9530029     6.203297    2.3741253 
 5950000   0.80214712  -0.17613386    1.2448448    1.1324014    -4.955144    6.1999888    2.3772462 
 5960000   0.79644919  -0.11940006    1.2593395    1.1243575    -4.948091    6.2074305     2.383697 
 5970000   0.79190753  -0.14800785    1.2518342     1.117946   -4.9489533    6.2007874    2.3697802 
 5980000   0.79990499  -0.17636598    1.2602439    1.1292361   -4.9421822    6.2024261      2.38948 
 5990000   0.79352646   -0.1538154    1.2425953    1.1202315   -4.9608065    6.2034018    2.3628267 
 6000000   0.79989101  -0.14889727    1.2591525    1.1292164   -4.9432574    6.2024099    2.3883689 
Loop time of 94715.7 on 216 procs for 6000000 steps with 28900 atoms

Performance: 27366.103 tau/day, 63.347 timesteps/s
99.8% CPU use with 216 MPI tasks x 1 OpenMP threads

MPI task timing breakdown:
Section |  min time  |  avg time  |  max time  |%varavg| %total
---------------------------------------------------------------
Pair    | 1092.5     | 1531       | 1978.7     | 436.3 |  1.62
Bond    | 15.54      | 19.885     | 25.007     |  42.2 |  0.02
Kspace  | 85939      | 86454      | 86949      |  66.1 | 91.28
Neigh   | 866.6      | 904.19     | 939.48     |  52.0 |  0.95
Comm    | 1408.4     | 1655.8     | 1922.3     | 313.7 |  1.75
Output  | 3.0597     | 3.111      | 3.1233     |   0.4 |  0.00
Modify  | 3432.8     | 3575.4     | 3742       | 134.7 |  3.77
Other   |            | 572.4      |            |       |  0.60

Nlocal:    133.796 ave 231 max 2 min
Histogram: 2 4 2 2 8 138 37 13 5 5
Nghost:    974.412 ave 1226 max 403 min
Histogram: 2 2 2 3 10 9 77 73 32 6
Neighs:    5131.86 ave 12238 max 22 min
Histogram: 5 5 6 119 43 17 9 5 3 4

Total # of neighbors = 1108481
Ave neighs/atom = 38.3557
Ave special neighs/atom = 0.602076
Neighbor list builds = 806308
Dangerous builds = 0
System init for write_restart ...
PPPM initialization ...
  using 12-bit tables for long-range coulomb (src/kspace.cpp:332)
  G vector (1/distance) = 1.23381
  grid = 120 120 120
  stencil order = 5
  estimated absolute RMS force accuracy = 0.000120552
  estimated relative force accuracy = 0.000120552
  using double precision FFTW3
  3d grid and FFT values/proc = 19683 8400
WARNING: Neighbor exclusions used with KSpace solver may give inconsistent Coulombic energies (src/neighbor.cpp:486)
Neighbor list info ...
  update every 1 steps, delay 0 steps, check yes
  max neighbors/atom: 2000, page size: 100000
  master list distance cutoff = 2.8
  ghost atom cutoff = 2.8
  binsize = 1.4, bins = 24 24 24
  7 neighbor lists, perpetual/occasional/extra = 2 5 0
  (1) pair lj/cut, perpetual
      attributes: half, newton on
      pair build: half/bin/newton
      stencil: half/bin/3d/newton
      bin: standard
  (2) pair coul/long, perpetual, skip from (1)
      attributes: half, newton on
      pair build: skip
      stencil: none
      bin: none
  (3) compute rdf, occasional, copy from (1)
      attributes: half, newton on
      pair build: copy
      stencil: none
      bin: none
  (4) compute rdf, occasional, copy from (1)
      attributes: half, newton on
      pair build: copy
      stencil: none
      bin: none
  (5) compute rdf, occasional, copy from (1)
      attributes: half, newton on
      pair build: copy
      stencil: none
      bin: none
  (6) compute rdf, occasional, copy from (1)
      attributes: half, newton on
      pair build: copy
      stencil: none
      bin: none
  (7) compute rdf, occasional, copy from (1)
      attributes: half, newton on
      pair build: copy
      stencil: none
      bin: none
PPPM initialization ...
  using 12-bit tables for long-range coulomb (src/kspace.cpp:332)
  G vector (1/distance) = 1.23381
  grid = 120 120 120
  stencil order = 5
  estimated absolute RMS force accuracy = 0.000120552
  estimated relative force accuracy = 0.000120552
  using double precision FFTW3
  3d grid and FFT values/proc = 19683 8400
WARNING: Neighbor exclusions used with KSpace solver may give inconsistent Coulombic energies (src/neighbor.cpp:486)
Neighbor list info ...
  update every 1 steps, delay 0 steps, check yes
  max neighbors/atom: 2000, page size: 100000
  master list distance cutoff = 2.8
  ghost atom cutoff = 2.8
  binsize = 1.4, bins = 24 24 24
  7 neighbor lists, perpetual/occasional/extra = 2 5 0
  (1) pair lj/cut, perpetual
      attributes: half, newton on
      pair build: half/bin/newton
      stencil: half/bin/3d/newton
      bin: standard
  (2) pair coul/long, perpetual, skip from (1)
      attributes: half, newton on
      pair build: skip
      stencil: none
      bin: none
  (3) compute rdf, occasional, copy from (1)
      attributes: half, newton on
      pair build: copy
      stencil: none
      bin: none
  (4) compute rdf, occasional, copy from (1)
      attributes: half, newton on
      pair build: copy
      stencil: none
      bin: none
  (5) compute rdf, occasional, copy from (1)
      attributes: half, newton on
      pair build: copy
      stencil: none
      bin: none
  (6) compute rdf, occasional, copy from (1)
      attributes: half, newton on
      pair build: copy
      stencil: none
      bin: none
  (7) compute rdf, occasional, copy from (1)
      attributes: half, newton on
      pair build: copy
      stencil: none
      bin: none
Setting up Verlet run ...
  Unit style    : lj
  Current step  : 6000000
  Time step     : 0.005
Per MPI rank memory allocation (min/avg/max) = 16.61 | 20.08 | 20.64 Mbytes
Step Lx Ly Lz Press Pxx Pyy Pzz PotEng Temp 
 6000000    32.853982    32.853982    32.853982  -0.10657757   -1.0654446 -0.019890265   0.76560212    1.2591525   0.79989101 
 6000010    33.511062     32.53029     32.53029 -0.091349295   -1.1448474   0.45512218   0.41567736    1.2762194   0.80351503 
 6000020    34.168142     32.21598     32.21598   0.01199461   -1.2266112   0.66459644    0.5979986    1.2987947   0.81879636 
 6000030    34.825221    31.910609    31.910609   0.15296704   -1.3533433   0.93005313   0.88219129     1.318026   0.83809772 
 6000040    35.482301    31.613759    31.613759    0.2762328   -1.3281172    1.1336736    1.0231421     1.349386   0.85250721 
 6000050    36.139381    31.325043    31.325043   0.31023572   -1.2134215    1.0498044    1.0943243    1.3670561   0.87494004 
 6000060     36.79646    31.044095    31.044095   0.41400458   -1.1630141    1.1309404    1.2740874    1.3927219   0.88960086 
 6000070     37.45354    30.770574    30.770574   0.46559099   -1.1170719    1.1961597    1.3176852    1.4047282   0.91321744 
 6000080    38.110619    30.504157    30.504157   0.51264479   -1.0716978    1.3238827    1.2857494    1.4272395   0.92836049 
 6000090    38.767699    30.244542    30.244542   0.63663881  -0.92081362    1.4530271     1.377703    1.4488978   0.94307902 
 6000100    39.424779    29.991445    29.991445   0.69278139  -0.78910002    1.4055923    1.4618519    1.4642667   0.95997856 
Loop time of 2.122 on 216 procs for 100 steps with 28900 atoms

Performance: 20358.191 tau/day, 47.125 timesteps/s
99.8% CPU use with 216 MPI tasks x 1 OpenMP threads

MPI task timing breakdown:
Section |  min time  |  avg time  |  max time  |%varavg| %total
---------------------------------------------------------------
Pair    | 0.0006392  | 0.024802   | 0.065447   |   6.2 |  1.17
Bond    | 3.8624e-05 | 0.00025439 | 0.00061464 |   0.0 |  0.01
Kspace  | 1.4714     | 1.5301     | 1.5593     |   1.0 | 72.10
Neigh   | 0.051834   | 0.054761   | 0.057035   |   0.4 |  2.58
Comm    | 0.039377   | 0.04966    | 0.073296   |   2.6 |  2.34
Output  | 0.012205   | 0.020545   | 0.02625    |   1.5 |  0.97
Modify  | 0.22493    | 0.26909    | 0.33906    |   4.0 | 12.68
Other   |            | 0.1728     |            |       |  8.14

Nlocal:    133.796 ave 221 max 4 min
Histogram: 1 4 3 1 4 118 58 15 6 6
Nghost:    980.532 ave 1205 max 420 min
Histogram: 1 2 3 3 7 10 50 90 42 8
Neighs:    5135.49 ave 12103 max 17 min
Histogram: 6 3 4 102 64 14 11 5 3 4

Total # of neighbors = 1109265
Ave neighs/atom = 38.3829
Ave special neighs/atom = 0.602076
Neighbor list builds = 49
Dangerous builds = 0
PPPM initialization ...
  using 12-bit tables for long-range coulomb (src/kspace.cpp:332)
  G vector (1/distance) = 1.24062
  grid = 135 120 120
  stencil order = 5
  estimated absolute RMS force accuracy = 0.000107236
  estimated relative force accuracy = 0.000107236
  using double precision FFTW3
  3d grid and FFT values/proc = 21141 9450
WARNING: Neighbor exclusions used with KSpace solver may give inconsistent Coulombic energies (src/neighbor.cpp:486)
Neighbor list info ...
  update every 1 steps, delay 0 steps, check yes
  max neighbors/atom: 2000, page size: 100000
  master list distance cutoff = 2.8
  ghost atom cutoff = 2.8
  binsize = 1.4, bins = 29 22 22
  7 neighbor lists, perpetual/occasional/extra = 2 5 0
  (1) pair lj/cut, perpetual
      attributes: half, newton on
      pair build: half/bin/newton
      stencil: half/bin/3d/newton
      bin: standard
  (2) pair coul/long, perpetual, skip from (1)
      attributes: half, newton on
      pair build: skip
      stencil: none
      bin: none
  (3) compute rdf, occasional, copy from (1)
      attributes: half, newton on
      pair build: copy
      stencil: none
      bin: none
  (4) compute rdf, occasional, copy from (1)
      attributes: half, newton on
      pair build: copy
      stencil: none
      bin: none
  (5) compute rdf, occasional, copy from (1)
      attributes: half, newton on
      pair build: copy
      stencil: none
      bin: none
  (6) compute rdf, occasional, copy from (1)
      attributes: half, newton on
      pair build: copy
      stencil: none
      bin: none
  (7) compute rdf, occasional, copy from (1)
      attributes: half, newton on
      pair build: copy
      stencil: none
      bin: none
Setting up Verlet run ...
  Unit style    : lj
  Current step  : 6000100
  Time step     : 0.005
Per MPI rank memory allocation (min/avg/max) = 16.74 | 20.23 | 20.79 Mbytes
Step Lx Ly Lz Press Pxx Pyy Pzz PotEng Temp 
 6000100    39.424779    29.991445    29.991445    1.1814889  -0.40661392    1.6487148    2.3023658     1.472245   0.95997856 
 6010000    39.424779    29.991445    29.991445  -0.12917332  -0.14725078  -0.10827909  -0.13199009     1.266419   0.79937035 
 6020000    39.424779    29.991445    29.991445  -0.15067401  -0.16508764  -0.16641665  -0.12051776    1.2660012   0.80310261 
 6030000    39.424779    29.991445    29.991445   -0.1549128  -0.15932831  -0.15581888   -0.1495912    1.2539742   0.79725345 
 6040000    39.424779    29.991445    29.991445 -0.078568797  -0.12013229 -0.021856351 -0.093717751    1.2553276   0.80106218 
 6050000    39.424779    29.991445    29.991445  -0.15823293  -0.14253585  -0.18693504   -0.1452279    1.2503935   0.79537111 
 6060000    39.424779    29.991445    29.991445  -0.12898304  -0.13593745 -0.095016728  -0.15599493    1.2641403   0.80398378 
 6070000    39.424779    29.991445    29.991445  -0.11299972 -0.089294372  -0.12870315  -0.12100164    1.2784781   0.79955864 
 6080000    39.424779    29.991445    29.991445  -0.14644076  -0.13118274   -0.1739959  -0.13414365    1.2591578   0.78743329 
 6090000    39.424779    29.991445    29.991445 -0.075553698 -0.089586101 -0.022337732  -0.11473726     1.262545   0.80329309 
 6100000    39.424779    29.991445    29.991445  -0.14988737  -0.17251649  -0.11517275  -0.16197285    1.2577668   0.80210095 
 6100100    39.424779    29.991445    29.991445  -0.14662006  -0.12091537  -0.17789662  -0.14104818    1.2576496   0.80538351 
Loop time of 1737.39 on 216 procs for 100000 steps with 28900 atoms

Performance: 24864.915 tau/day, 57.558 timesteps/s
99.8% CPU use with 216 MPI tasks x 1 OpenMP threads

MPI task timing breakdown:
Section |  min time  |  avg time  |  max time  |%varavg| %total
---------------------------------------------------------------
Pair    | 0.55702    | 25.063     | 72.678     | 184.7 |  1.44
Bond    | 0.068137   | 0.28201    | 0.62839    |  15.5 |  0.02
Kspace  | 1547.6     | 1598       | 1626.9     |  29.5 | 91.98
Neigh   | 15.946     | 16.616     | 17.395     |   7.1 |  0.96
Comm    | 27.457     | 37.167     | 52.477     |  74.6 |  2.14
Output  | 0.050263   | 0.050337   | 0.051514   |   0.0 |  0.00
Modify  | 41.039     | 49.378     | 58.498     |  67.4 |  2.84
Other   |            | 10.86      |            |       |  0.62

Nlocal:    133.796 ave 251 max 4 min
Histogram: 4 1 2 7 60 104 25 9 2 2
Nghost:    979.097 ave 1228 max 323 min
Histogram: 1 2 1 3 9 11 37 93 48 11
Neighs:    5138.57 ave 15249 max 9 min
Histogram: 5 7 66 95 28 6 4 3 1 1

Total # of neighbors = 1109931
Ave neighs/atom = 38.4059
Ave special neighs/atom = 0.602076
Neighbor list builds = 13431
Dangerous builds = 0
Total wall time: 31:00:47
