LAMMPS (3 Mar 2020)
OMP_NUM_THREADS environment is not set. Defaulting to 1 thread. (src/comm.cpp:94)
  using 1 OpenMP thread(s) per MPI task
Reading restart file ...
  restart file = 3 Mar 2020, LAMMPS = 3 Mar 2020
  restoring atom style full from restart
  orthogonal box = (0.713543 0.713543 0.713543) to (33.0765 33.0765 33.0765)
  6 by 6 by 6 MPI processor grid
  restoring pair style hybrid/overlay from restart
  restoring bond style fene from restart
  27475 atoms
  8700 bonds
Finding 1-2 1-3 1-4 neighbors ...
  special bond factors lj:   0          1          1         
  special bond factors coul: 0          1          1         
  2 = max # of 1-2 neighbors
  6 = max # of special neighbors
  special bonds CPU = 2.47421 secs
  read_restart CPU = 2.63833 secs
Resetting global fix info from restart file:
  fix style: nvt, fix ID: pt
25 rigid bodies with 475 atoms
Resetting global fix info from restart file:
  fix style: rigid/nvt, fix ID: ri
System init for write_data ...
PPPM initialization ...
  using 12-bit tables for long-range coulomb (src/kspace.cpp:332)
  G vector (1/distance) = 1.23543
  grid = 120 120 120
  stencil order = 5
  estimated absolute RMS force accuracy = 9.67447e-05
  estimated relative force accuracy = 9.67447e-05
  using double precision FFTW3
  3d grid and FFT values/proc = 19683 8400
All restart file global fix info was re-assigned
Unused restart file peratom fix info:
  fix style: STORE, fix ID: par_COMPUTE_STORE
WARNING: Neighbor exclusions used with KSpace solver may give inconsistent Coulombic energies (src/neighbor.cpp:486)
Neighbor list info ...
  update every 1 steps, delay 0 steps, check yes
  max neighbors/atom: 2000, page size: 100000
  master list distance cutoff = 2.8
  ghost atom cutoff = 2.8
  binsize = 1.4, bins = 24 24 24
  2 neighbor lists, perpetual/occasional/extra = 2 0 0
  (1) pair lj/cut, perpetual
      attributes: half, newton on
      pair build: half/bin/newton
      stencil: half/bin/3d/newton
      bin: standard
  (2) pair coul/long, perpetual, skip from (1)
      attributes: half, newton on
      pair build: skip
      stencil: none
      bin: none
PPPM initialization ...
  using 12-bit tables for long-range coulomb (src/kspace.cpp:332)
  G vector (1/distance) = 1.23543
  grid = 120 120 120
  stencil order = 5
  estimated absolute RMS force accuracy = 9.67447e-05
  estimated relative force accuracy = 9.67447e-05
  using double precision FFTW3
  3d grid and FFT values/proc = 19683 8400
WARNING: Neighbor exclusions used with KSpace solver may give inconsistent Coulombic energies (src/neighbor.cpp:486)
Neighbor list info ...
  update every 1 steps, delay 0 steps, check yes
  max neighbors/atom: 2000, page size: 100000
  master list distance cutoff = 2.8
  ghost atom cutoff = 2.8
  binsize = 1.4, bins = 24 24 24
  2 neighbor lists, perpetual/occasional/extra = 2 0 0
  (1) pair lj/cut, perpetual
      attributes: half, newton on
      pair build: half/bin/newton
      stencil: half/bin/3d/newton
      bin: standard
  (2) pair coul/long, perpetual, skip from (1)
      attributes: half, newton on
      pair build: skip
      stencil: none
      bin: none
Setting up Verlet run ...
  Unit style    : lj
  Current step  : 12000000
  Time step     : 0.005
Per MPI rank memory allocation (min/avg/max) = 11 | 11.03 | 11.16 Mbytes
Step Temp Press Volume 
12000000   0.79853871  -0.18777871    33895.565 
12010000     0.794774  -0.23035792    33895.565 
12020000   0.80481605  -0.18436211    33895.565 
12030000   0.79667003  -0.24839375    33895.565 
12040000   0.79526395   -0.2313249    33895.565 
12050000   0.79579765  -0.17231004    33895.565 
12060000   0.80154791   -0.1596797    33895.565 
12070000    0.8002179  -0.22545533    33895.565 
12080000   0.79658368  -0.16312889    33895.565 
12090000   0.80250374  -0.13225601    33895.565 
12100000   0.79148948  -0.20567708    33895.565 
12110000    0.8014979  -0.13576126    33895.565 
12120000   0.79548399  -0.18619777    33895.565 
12130000     0.795406   -0.1361161    33895.565 
12140000   0.79800654  -0.17017046    33895.565 
12150000   0.79590232  -0.15064228    33895.565 
12160000   0.80204236  -0.11769634    33895.565 
12170000    0.8006165  -0.18295383    33895.565 
12180000   0.80051343  -0.14401096    33895.565 
12190000     0.801409  -0.21117479    33895.565 
12200000   0.80011966  -0.18933856    33895.565 
12210000   0.80460692  -0.23105505    33895.565 
12220000   0.79633738  -0.17264799    33895.565 
12230000   0.79966935  -0.17813305    33895.565 
12240000   0.80561305  -0.17622006    33895.565 
12250000   0.80068047  -0.21349396    33895.565 
12260000   0.79785293 -0.081413111    33895.565 
12270000   0.80195185  -0.17762654    33895.565 
12280000   0.79606221  -0.19731146    33895.565 
12290000   0.80326711  -0.16838984    33895.565 
12300000    0.7998323  -0.11520398    33895.565 
12310000   0.79878045  -0.18997676    33895.565 
12320000   0.80134913  -0.14431349    33895.565 
12330000   0.80195516  -0.21351453    33895.565 
12340000   0.80116216  -0.10704452    33895.565 
12350000   0.80275646  -0.16062398    33895.565 
12360000   0.79615375  -0.17937676    33895.565 
12370000   0.80236493  -0.21508144    33895.565 
12380000   0.80007056  -0.16397937    33895.565 
12390000   0.79426048  -0.14654119    33895.565 
12400000   0.80081501  -0.23053915    33895.565 
12410000   0.80367224  -0.15664916    33895.565 
12420000   0.80091688  -0.16716543    33895.565 
12430000    0.8028746  -0.20502579    33895.565 
12440000   0.80380564  -0.21873005    33895.565 
12450000    0.7966082   -0.2091847    33895.565 
12460000   0.79253343  -0.16756436    33895.565 
12470000   0.79813001   -0.0984967    33895.565 
12480000   0.79617127  -0.18185189    33895.565 
12490000   0.80194947  -0.16443356    33895.565 
12500000   0.80117945  -0.17742175    33895.565 
12510000   0.80030712  -0.20391856    33895.565 
12520000   0.79774641  -0.19344519    33895.565 
12530000   0.79984892  -0.17990223    33895.565 
12540000   0.80028749  -0.14672131    33895.565 
12550000   0.79408559   -0.1565799    33895.565 
12560000   0.79900673  -0.20180448    33895.565 
12570000   0.80195769  -0.17801175    33895.565 
12580000    0.7945088  -0.19524356    33895.565 
12590000   0.80763671  -0.17468702    33895.565 
12600000   0.80173979  -0.23801596    33895.565 
12610000   0.79823898  -0.18883969    33895.565 
12620000   0.80212733  -0.15134738    33895.565 
12630000   0.79659833  -0.20492573    33895.565 
12640000   0.79489183  -0.17439318    33895.565 
12650000   0.79473778  -0.18291235    33895.565 
12660000   0.79792955  -0.24368623    33895.565 
12670000   0.80320594  -0.12987838    33895.565 
12680000   0.79402571  -0.23489557    33895.565 
12690000   0.79676375  -0.24451545    33895.565 
12700000   0.79642125   -0.1383431    33895.565 
12710000   0.79543612  -0.13824727    33895.565 
12720000   0.80277887  -0.15993674    33895.565 
12730000   0.79531358  -0.20064636    33895.565 
12740000     0.795992  -0.23950485    33895.565 
12750000   0.80688158  -0.14264307    33895.565 
12760000   0.79456931  -0.18515404    33895.565 
12770000   0.79799569  -0.17389679    33895.565 
12780000   0.79892896  -0.19323622    33895.565 
12790000   0.79586435  -0.16117788    33895.565 
12800000   0.80751858  -0.18772365    33895.565 
12810000   0.80007328  -0.17277462    33895.565 
12820000   0.80234047  -0.21463136    33895.565 
12830000   0.80972634  -0.16623494    33895.565 
12840000   0.80316482 -0.079266831    33895.565 
12850000   0.79664996  -0.15952513    33895.565 
12860000   0.79547838  -0.17813176    33895.565 
12870000    0.7939449  -0.15405036    33895.565 
12880000   0.79503767  -0.15427464    33895.565 
12890000   0.80138299  -0.17178749    33895.565 
12900000   0.79646126  -0.18534072    33895.565 
12910000   0.80051954   -0.1724676    33895.565 
12920000   0.80155829  -0.20367665    33895.565 
12930000   0.79816441  -0.17971006    33895.565 
12940000   0.79444254  -0.19061947    33895.565 
12950000   0.80418136  -0.21456694    33895.565 
12960000   0.79397537   -0.1276151    33895.565 
12970000   0.79874047   -0.1915304    33895.565 
12980000   0.80058339  -0.16105562    33895.565 
12990000   0.79857315  -0.19963267    33895.565 
13000000   0.79997915  -0.21409655    33895.565 
Loop time of 14866.8 on 216 procs for 1000000 steps with 27475 atoms

Performance: 29057.956 tau/day, 67.264 timesteps/s
99.7% CPU use with 216 MPI tasks x 1 OpenMP threads

MPI task timing breakdown:
Section |  min time  |  avg time  |  max time  |%varavg| %total
---------------------------------------------------------------
Pair    | 179.61     | 200.11     | 283.98     | 115.7 |  1.35
Bond    | 1.8138     | 2.5519     | 3.639      |  20.5 |  0.02
Kspace  | 13526      | 13767      | 13881      |  58.2 | 92.60
Neigh   | 107.34     | 114.11     | 120.81     |  24.0 |  0.77
Comm    | 279.26     | 366.86     | 590.42     | 304.4 |  2.47
Output  | 0.016289   | 0.019139   | 0.031182   |   0.9 |  0.00
Modify  | 273.18     | 314.44     | 353.09     |  96.1 |  2.12
Other   |            | 101.3      |            |       |  0.68

Nlocal:    127.199 ave 175 max 109 min
Histogram: 3 50 94 50 10 2 3 2 1 1
Nghost:    948.889 ave 1051 max 890 min
Histogram: 4 27 50 59 41 16 9 4 4 2
Neighs:    4651.1 ave 8367 max 3896 min
Histogram: 51 110 34 9 4 3 3 0 1 1

Total # of neighbors = 1004637
Ave neighs/atom = 36.5655
Ave special neighs/atom = 0.633303
Neighbor list builds = 134479
Dangerous builds = 0
PPPM initialization ...
  using 12-bit tables for long-range coulomb (src/kspace.cpp:332)
  G vector (1/distance) = 1.23543
  grid = 120 120 120
  stencil order = 5
  estimated absolute RMS force accuracy = 9.67447e-05
  estimated relative force accuracy = 9.67447e-05
  using double precision FFTW3
  3d grid and FFT values/proc = 19683 8400
WARNING: Neighbor exclusions used with KSpace solver may give inconsistent Coulombic energies (src/neighbor.cpp:486)
Neighbor list info ...
  update every 1 steps, delay 0 steps, check yes
  max neighbors/atom: 2000, page size: 100000
  master list distance cutoff = 2.8
  ghost atom cutoff = 2.8
  binsize = 1.4, bins = 24 24 24
  7 neighbor lists, perpetual/occasional/extra = 2 5 0
  (1) pair lj/cut, perpetual
      attributes: half, newton on
      pair build: half/bin/newton
      stencil: half/bin/3d/newton
      bin: standard
  (2) pair coul/long, perpetual, skip from (1)
      attributes: half, newton on
      pair build: skip
      stencil: none
      bin: none
  (3) compute rdf, occasional, copy from (1)
      attributes: half, newton on
      pair build: copy
      stencil: none
      bin: none
  (4) compute rdf, occasional, copy from (1)
      attributes: half, newton on
      pair build: copy
      stencil: none
      bin: none
  (5) compute rdf, occasional, copy from (1)
      attributes: half, newton on
      pair build: copy
      stencil: none
      bin: none
  (6) compute rdf, occasional, copy from (1)
      attributes: half, newton on
      pair build: copy
      stencil: none
      bin: none
  (7) compute rdf, occasional, copy from (1)
      attributes: half, newton on
      pair build: copy
      stencil: none
      bin: none
Setting up Verlet run ...
  Unit style    : lj
  Current step  : 0
  Time step     : 0.005
Per MPI rank memory allocation (min/avg/max) = 18.58 | 19.86 | 20.71 Mbytes
Step Temp Press PotEng KinEng E_pair E_bond TotEng 
       0   0.79997915  -0.18171751    1.4099989    1.1813632   -5.1147336    6.5247325    2.5913621 
   10000   0.80191338  -0.12728001    1.4116965    1.1842196    -5.112634    6.5243304     2.595916 
   20000   0.79448979  -0.19951554     1.407093    1.1732568   -5.1207869      6.52788    2.5803499 
   30000   0.79791286  -0.20957898     1.406242    1.1783118   -5.1186725    6.5249145    2.5845539 
   40000   0.80081814  -0.17863394    1.4113947    1.1826022   -5.1132813    6.5246759    2.5939968 
   50000   0.79835943  -0.17586734    1.4185318    1.1789713   -5.1091373    6.5276691    2.5975031 
   60000   0.80172406  -0.26749055    1.4021961      1.18394    -5.123039    6.5252351    2.5861361 
   70000   0.80523114  -0.18867402    1.4140525     1.189119   -5.1109132    6.5249657    2.6031715 
   80000   0.79870593   -0.1135177    1.4142537     1.179483    -5.110078    6.5243317    2.5937367 
   90000   0.79844623  -0.15179378    1.4115481    1.1790995    -5.113041    6.5245891    2.5906476 
  100000   0.79878653  -0.23120459    1.4093169     1.179602   -5.1152937    6.5246106    2.5889189 
  110000     0.807165   -0.2692389    1.4005814    1.1919748   -5.1220869    6.5226683    2.5925563 
  120000   0.79742165  -0.18001158    1.4045606    1.1775864    -5.122148    6.5267086    2.5821471 
  130000   0.79345042  -0.19819718    1.4128425    1.1717219   -5.1107129    6.5235553    2.5845644 
  140000   0.79897509  -0.19747241    1.4114388    1.1798805   -5.1150943     6.526533    2.5913192 
  150000   0.79189489  -0.19276343    1.4030092    1.1694248   -5.1219246    6.5249338     2.572434 
  160000   0.80037027  -0.15266876    1.4079511    1.1819408   -5.1136493    6.5216003    2.5898918 
  170000   0.80729002   -0.1514105    1.4179156    1.1921595   -5.1119676    6.5298832    2.6100751 
  180000   0.80115288  -0.21984885    1.4029116    1.1830965   -5.1208839    6.5237954    2.5860081 
  190000   0.79834395  -0.15246662     1.417298    1.1789484   -5.1098925    6.5271905    2.5962464 
  200000   0.79412103  -0.16992263    1.4109533    1.1727123    -5.112895    6.5238483    2.5836656 
  210000   0.80640422  -0.13008919    1.4194415    1.1908514   -5.1065831    6.5260247    2.6102929 
  220000   0.80351412   -0.1982148    1.4085731    1.1865835   -5.1123239     6.520897    2.5951566 
  230000   0.79734719  -0.17858554    1.4061904    1.1774765   -5.1178084    6.5239987    2.5836668 
  240000   0.79746964  -0.18024607    1.4123858    1.1776573   -5.1125177    6.5249034    2.5900431 
  250000   0.79932346  -0.15513106    1.4114013    1.1803949    -5.112242    6.5236433    2.5917962 
  260000   0.79447226  -0.22861185    1.4015349    1.1732309   -5.1265204    6.5280553    2.5747658 
  270000   0.79936727    -0.188994    1.4059181    1.1804596   -5.1154765    6.5213946    2.5863778 
  280000   0.80052339  -0.18658953    1.4051731    1.1821669   -5.1211638    6.5263368      2.58734 
  290000   0.79824856  -0.15350856    1.4145023    1.1788076   -5.1123795    6.5268818    2.5933098 
  300000   0.80154187  -0.16108813    1.4144518    1.1836709   -5.1113399    6.5257916    2.5981227 
  310000   0.79824786  -0.27238135    1.4019683    1.1788065   -5.1253726    6.5273409    2.5807748 
  320000   0.79531279  -0.13980808    1.4157822    1.1744722   -5.1079102    6.5236923    2.5902544 
  330000     0.801913   -0.1892123    1.4083581     1.184219   -5.1157367    6.5240948    2.5925771 
  340000   0.79208221  -0.20653063    1.4154559    1.1697015   -5.1111985    6.5266543    2.5851573 
  350000   0.80092622  -0.22179281    1.4057426    1.1827618   -5.1165178    6.5222604    2.5885044 
  360000   0.80000538  -0.16366713    1.4188027    1.1814019   -5.1091458    6.5279484    2.6002046 
  370000   0.80510547   -0.1828263     1.401484    1.1889335   -5.1238967    6.5253807    2.5904175 
  380000   0.79986778  -0.22673274    1.4068635    1.1811987     -5.11524    6.5221035    2.5880622 
  390000   0.79628506  -0.17276789    1.4009698     1.175908   -5.1236456    6.5246154    2.5768778 
  400000   0.80025177  -0.14293514    1.4154152    1.1817658   -5.1065333    6.5219485     2.597181 
  410000   0.79637013  -0.17076714      1.40868    1.1760336   -5.1172029     6.525883    2.5847137 
  420000     0.804075  -0.18720781    1.3949836    1.1874117   -5.1287481    6.5237316    2.5823953 
  430000   0.80820234   -0.1578559    1.4092854    1.1935067   -5.1150219    6.5243074    2.6027922 
  440000   0.79746109  -0.17400803    1.4220942    1.1776447   -5.1039218     6.526016    2.5997389 
  450000    0.7999434  -0.21819187    1.4074795    1.1813104   -5.1172203    6.5246998    2.5887899 
  460000   0.79820823  -0.18538484    1.4102436     1.178748    -5.115873    6.5261166    2.5889916 
  470000   0.79066033  -0.14883933    1.4118221    1.1676017   -5.1133065    6.5251286    2.5794238 
  480000   0.79831043  -0.14581036    1.4093028    1.1788989   -5.1156137    6.5249165    2.5882017 
  490000   0.80324502  -0.17610633    1.4081768    1.1861861    -5.115575    6.5237518    2.5943629 
  500000   0.79924207  -0.16167471    1.4121922    1.1802747   -5.1140398     6.526232    2.5924669 
  510000   0.80099221  -0.21730865    1.4086154    1.1828592    -5.116991    6.5256064    2.5914746 
  520000   0.79968008  -0.15705003    1.4054157    1.1809215   -5.1170375    6.5224532    2.5863372 
  530000   0.80729237  -0.17733025    1.4128925    1.1921629   -5.1136677    6.5265602    2.6050554 
  540000   0.79953422  -0.14639752    1.4059698    1.1807062   -5.1197959    6.5257657     2.586676 
  550000   0.80176786  -0.16718704    1.4110861    1.1840047   -5.1143946    6.5254807    2.5950907 
  560000    0.7998029  -0.15616827    1.4193367    1.1811029   -5.1071868    6.5265236    2.6004397 
  570000   0.79239744  -0.17045704     1.416884     1.170167   -5.1096992    6.5265832     2.587051 
  580000   0.80157696  -0.22502388    1.4142765    1.1837228    -5.113932    6.5282085    2.5979992 
  590000   0.79513764  -0.20295934    1.4060768    1.1742135   -5.1194829    6.5255598    2.5802904 
  600000   0.80388169  -0.12724777    1.4187361    1.1871263   -5.1096232    6.5283593    2.6058623 
  610000   0.80089122  -0.18431705    1.4072281    1.1827101   -5.1193412    6.5265693    2.5899382 
  620000   0.80470277  -0.18002877    1.4099308    1.1883388    -5.112151    6.5220817    2.5982695 
  630000   0.80757395  -0.17770252    1.4139215    1.1925788    -5.113848    6.5277696    2.6065003 
  640000   0.80884444  -0.15722442    1.4082809     1.194455   -5.1181738    6.5264546    2.6027358 
  650000   0.80058688  -0.16517333    1.4084918    1.1822607   -5.1144937    6.5229855    2.5907524 
  660000   0.79604245  -0.16330844    1.4044038    1.1755497   -5.1176106    6.5220144    2.5799535 
  670000    0.7989045  -0.20008294    1.4121456    1.1797762   -5.1141366    6.5262822    2.5919218 
  680000   0.79547672  -0.15298961    1.4113725    1.1747143   -5.1115812    6.5229538    2.5860868 
  690000   0.79339665  -0.16401746    1.4182381    1.1716425    -5.107787    6.5260251    2.5898807 
  700000   0.80559795  -0.18031499    1.4147322    1.1896607   -5.1089213    6.5236535    2.6043929 
  710000   0.79685454  -0.14910883    1.4057607     1.176749   -5.1192926    6.5250533    2.5825097 
  720000   0.79697497  -0.11970428    1.4087962    1.1769268    -5.116036    6.5248322     2.585723 
  730000     0.797708  -0.14111749    1.4096852    1.1780093    -5.116169    6.5258541    2.5876945 
  740000   0.80379796  -0.17019233    1.4172361    1.1870026   -5.1090056    6.5262416    2.6042387 
  750000   0.80478053    -0.199831    1.4093642    1.1884536   -5.1165653    6.5259295    2.5978178 
  760000   0.80618071   -0.1615784    1.4044181    1.1905213   -5.1218438    6.5262619    2.5949395 
  770000   0.79797624   -0.1503849     1.415379    1.1784054   -5.1098897    6.5252688    2.5937844 
  780000   0.80056078  -0.15311591    1.4054222    1.1822221   -5.1223811    6.5278033    2.5876443 
  790000   0.80531017  -0.17945908    1.4116165    1.1892358   -5.1108157    6.5224322    2.6008523 
  800000   0.80178614  -0.25491023    1.4035125    1.1840317   -5.1218423    6.5253548    2.5875442 
  810000   0.80855072  -0.20266878    1.4101506    1.1940212   -5.1192424     6.529393    2.6041718 
  820000   0.80146627  -0.16491182    1.4133242    1.1835593   -5.1098275    6.5231517    2.5968835 
  830000   0.79899031  -0.19927525     1.410275    1.1799029   -5.1143093    6.5245843     2.590178 
  840000   0.80222017  -0.16997076    1.4130654    1.1846726   -5.1116778    6.5247433    2.5977381 
  850000   0.79905047  -0.21542369    1.4101864    1.1799918   -5.1180282    6.5282146    2.5901782 
  860000    0.7978786  -0.17150126    1.4045756    1.1782612   -5.1219902    6.5265658    2.5828368 
  870000   0.79802092  -0.15522779    1.4134442    1.1784714    -5.110251    6.5236952    2.5919156 
  880000   0.79484892  -0.15447942    1.4073523    1.1737872   -5.1171397     6.524492    2.5811395 
  890000   0.79638524   -0.1817196    1.4140639    1.1760559   -5.1111902    6.5252542    2.5901199 
  900000    0.8074362  -0.18980402    1.4098286    1.1923754   -5.1159387    6.5257673    2.6022039 
  910000   0.79741946  -0.17482213    1.4131071    1.1775832   -5.1146924    6.5277995    2.5906903 
  920000   0.81283262  -0.11171896     1.407005    1.2003445   -5.1151218    6.5221268    2.6073495 
  930000   0.79087613  -0.11765791    1.4180402    1.1679204   -5.1107335    6.5287737    2.5859605 
  940000    0.7998332  -0.16943139    1.4134334    1.1811477   -5.1140875    6.5275209    2.5945811 
  950000   0.81082479   -0.1989877    1.4042606    1.1973794   -5.1217089    6.5259695    2.6016401 
  960000   0.80491006  -0.15249813    1.4147833    1.1886449   -5.1124061    6.5271895    2.6034282 
  970000   0.80149044  -0.22818488    1.4082401     1.183595   -5.1173934    6.5256335    2.5918351 
  980000   0.79626518  -0.18909985    1.4055316    1.1758786   -5.1199314     6.525463    2.5814103 
  990000   0.79348215  -0.22449204    1.4087418    1.1717688   -5.1165498    6.5252916    2.5805106 
 1000000   0.80585889  -0.16427073    1.4062061    1.1900461   -5.1167791    6.5229852    2.5962521 
 1010000   0.80018682   -0.1608704    1.4110938    1.1816699   -5.1156545    6.5267484    2.5927637 
 1020000   0.79763169  -0.25608544    1.4007689    1.1778966   -5.1218478    6.5226168    2.5786655 
 1030000   0.79881386  -0.17017155     1.408611    1.1796424   -5.1177554    6.5263664    2.5882534 
 1040000   0.80355996   -0.1971812    1.4024641    1.1866511   -5.1202443    6.5227084    2.5891152 
 1050000   0.80139852  -0.20182715     1.406097    1.1834592   -5.1174389    6.5235359    2.5895562 
 1060000   0.80103466  -0.20125831    1.4041685    1.1829219   -5.1222933    6.5264618    2.5870904 
 1070000   0.80266846  -0.11485446     1.411957    1.1853346   -5.1133556    6.5253125    2.5972916 
 1080000   0.79429232  -0.18033164    1.3996186    1.1729652   -5.1239705    6.5235891    2.5725838 
 1090000   0.79915758  -0.24384068    1.4027535      1.18015    -5.121133    6.5238865    2.5829035 
 1100000    0.7973834  -0.15450189    1.4091355      1.17753   -5.1178294    6.5269649    2.5866655 
 1110000   0.80598798  -0.23565139     1.400386    1.1902367   -5.1236374    6.5240234    2.5906227 
 1120000   0.79831453  -0.21422568    1.3982928     1.178905   -5.1293994    6.5276922    2.5771978 
 1130000   0.80589645  -0.15001996    1.4128135    1.1901015   -5.1107679    6.5235814     2.602915 
 1140000   0.80530441  -0.19605735    1.4057355    1.1892272   -5.1176792    6.5234147    2.5949628 
 1150000   0.79764573  -0.19693774    1.4094063    1.1779173   -5.1159983    6.5254046    2.5873236 
 1160000   0.80274894  -0.15951684    1.4228814    1.1854535   -5.1030273    6.5259088    2.6083349 
 1170000   0.80048405  -0.20790117    1.4047541    1.1821088   -5.1210454    6.5257995    2.5868629 
 1180000   0.79684766  -0.18495273    1.4107671    1.1767388   -5.1153831    6.5261503    2.5875059 
 1190000   0.80347009  -0.19845076    1.4085195    1.1865184   -5.1154972    6.5240167    2.5950379 
 1200000   0.80053559  -0.21549735    1.4066082    1.1821849   -5.1192695    6.5258777    2.5887931 
 1210000   0.79974647  -0.12833668    1.4160899    1.1810196   -5.1051504    6.5212403    2.5971095 
 1220000   0.79893697  -0.16387434    1.4073306    1.1798242   -5.1166196    6.5239502    2.5871548 
 1230000   0.80063081   -0.1774447     1.410789    1.1823255   -5.1168434    6.5276324    2.5931146 
 1240000   0.80381236  -0.15624727    1.4062097    1.1870239   -5.1176868    6.5238965    2.5932336 
 1250000   0.79978267  -0.17466842    1.3948805    1.1810731   -5.1286899    6.5235704    2.5759536 
 1260000   0.80128044  -0.24735598    1.4079764    1.1832849   -5.1161807    6.5241571    2.5912612 
 1270000   0.79051942  -0.21245084    1.4069369    1.1673936   -5.1153769    6.5223138    2.5743305 
 1280000   0.80839079  -0.17978614    1.4074767     1.193785   -5.1194767    6.5269534    2.6012617 
 1290000   0.80022235  -0.14855295    1.4173166    1.1817223   -5.1094288    6.5267455     2.599039 
 1300000   0.80384743  -0.14643836    1.4117557    1.1870757   -5.1142832    6.5260388    2.5988313 
 1310000   0.80406837  -0.17288127    1.4099948    1.1874019   -5.1147227    6.5247175    2.5973968 
 1320000   0.79160349   -0.1748328    1.4050998    1.1689945   -5.1201137    6.5252135    2.5740943 
 1330000   0.79606948  -0.22043694    1.4058907    1.1755896   -5.1213205    6.5272112    2.5814803 
 1340000   0.79990978  -0.19962492    1.4138632    1.1812608   -5.1115323    6.5253954    2.5951239 
 1350000   0.79851323  -0.19352967    1.4138389    1.1791984   -5.1154267    6.5292657    2.5930374 
 1360000   0.80538309  -0.15834176    1.4108221    1.1893434   -5.1143408    6.5251629    2.6001655 
 1370000   0.79603714  -0.16652038    1.4047869    1.1755419   -5.1181354    6.5229223    2.5803288 
 1380000   0.79448628  -0.23839564    1.4016501    1.1732517   -5.1247037    6.5263538    2.5749017 
 1390000   0.80506504  -0.18713428     1.410487    1.1888738   -5.1148183    6.5253053    2.5993607 
 1400000    0.8062702  -0.15936531    1.4112931    1.1906535   -5.1182491    6.5295422    2.6019466 
 1410000   0.79123002  -0.22697725     1.410791     1.168443   -5.1129106    6.5237016     2.579234 
 1420000   0.80132564  -0.15530916    1.4135124    1.1833516   -5.1121825     6.525695    2.5968641 
 1430000   0.80249523  -0.19668267    1.4099956    1.1850788   -5.1150597    6.5250553    2.5950744 
 1440000   0.79192268  -0.13585487    1.4140475    1.1694659   -5.1128407    6.5268882    2.5835134 
 1450000   0.79666125  -0.13621333    1.4100556    1.1764635   -5.1138008    6.5238564    2.5865191 
 1460000   0.80417035  -0.14920051    1.4082871    1.1875525   -5.1128614    6.5211485    2.5958396 
 1470000   0.80478084  -0.25014097    1.4019735    1.1884541   -5.1244753    6.5264487    2.5904275 
 1480000   0.80539293  -0.15920202    1.4076556     1.189358   -5.1141693     6.521825    2.5970136 
 1490000   0.79786401  -0.16648652    1.4078845    1.1782397    -5.114694    6.5225785    2.5861242 
 1500000   0.79716085   -0.2366422    1.4052456    1.1772013   -5.1199195    6.5251651    2.5824469 
 1510000   0.79211394   -0.1632257    1.4036536    1.1697483   -5.1187011    6.5223547    2.5734019 
 1520000   0.80109871  -0.23599942    1.3980208    1.1830165   -5.1291603    6.5271811    2.5810373 
 1530000    0.8007771  -0.23311258    1.3976916    1.1825416   -5.1252073    6.5228989    2.5802332 
 1540000   0.80140968  -0.15950287    1.4129854    1.1834757   -5.1148028    6.5277882    2.5964612 
 1550000   0.79463356  -0.25622199    1.3961622    1.1734691   -5.1267719    6.5229341    2.5696314 
 1560000   0.80331732  -0.18694361    1.4092704    1.1862928   -5.1150997    6.5243701    2.5955633 
 1570000   0.80169015  -0.18170642    1.4172926    1.1838899   -5.1108873    6.5281799    2.6011825 
 1580000   0.80067806   -0.1696952    1.4215724    1.1823953   -5.1026893    6.5242617    2.6039677 
 1590000   0.79985674  -0.19698938    1.4039619    1.1811824   -5.1210873    6.5250493    2.5851444 
 1600000   0.80088809  -0.15264753    1.4109796    1.1827055    -5.114884    6.5258635     2.593685 
 1610000   0.79846002  -0.21719285    1.3992313    1.1791198   -5.1252816     6.524513    2.5783512 
 1620000   0.80012271  -0.20772839    1.4119522    1.1815752    -5.108547    6.5204992    2.5935274 
 1630000   0.80569571  -0.15496092     1.406367    1.1898051    -5.119301     6.525668    2.5961721 
 1640000    0.8006889  -0.10432118    1.4173286    1.1824113   -5.1091828    6.5265114    2.5997399 
 1650000   0.79802891  -0.17152715    1.4169331    1.1784832   -5.1087304    6.5256636    2.5954163 
 1660000   0.79920232  -0.12753874    1.4070515     1.180216   -5.1158938    6.5229453    2.5872676 
 1670000   0.80086282  -0.22040283    1.3970125    1.1826682   -5.1258797    6.5228921    2.5796806 
 1680000   0.80468139  -0.13528304    1.4113348    1.1883072   -5.1126565    6.5239913     2.599642 
 1690000   0.80082007  -0.16303492    1.4129039     1.182605   -5.1152421     6.528146     2.595509 
 1700000   0.80401066  -0.16946936    1.4134325    1.1873167    -5.112169    6.5256015    2.6007492 
 1710000   0.79717309   -0.1972243      1.40343    1.1772194    -5.121657    6.5250871    2.5806494 
 1720000   0.79812312  -0.18483101     1.403526    1.1786223   -5.1197148    6.5232408    2.5821484 
 1730000   0.79560175  -0.21915186    1.4040011    1.1748989   -5.1215341    6.5255352       2.5789 
 1740000   0.79820258  -0.22702854    1.4064638    1.1787397   -5.1206764    6.5271402    2.5852034 
 1750000    0.8027482  -0.18502908    1.4023758    1.1854524   -5.1243103     6.526686    2.5878281 
 1760000   0.80433438  -0.21641343    1.4008591    1.1877948   -5.1218789     6.522738    2.5886538 
 1770000   0.79818111  -0.12137456    1.4135115     1.178708   -5.1132816     6.526793    2.5922195 
 1780000   0.80307876  -0.16736721    1.4053442    1.1859405   -5.1173102    6.5226544    2.5912847 
 1790000   0.80281997  -0.16943653    1.4073332    1.1855584   -5.1205885    6.5279218    2.5928916 
 1800000   0.80650364  -0.20130308    1.4068492    1.1909982    -5.117498    6.5243471    2.5978474 
 1810000   0.79843802   -0.1035041    1.4230548    1.1790873   -5.1033633    6.5264181    2.6021422 
 1820000   0.79636585  -0.18537609    1.4137159    1.1760273   -5.1105569    6.5242727    2.5897432 
 1830000     0.798419  -0.27247313    1.4008247    1.1790593   -5.1234979    6.5243226     2.579884 
 1840000   0.79686454  -0.18111811    1.4161474    1.1767637   -5.1097869    6.5259343    2.5929111 
 1850000   0.80722497  -0.13914969    1.4142859    1.1920634   -5.1147888    6.5290747    2.6063493 
 1860000   0.80628439  -0.19347549    1.4099786    1.1906744   -5.1143483    6.5243269     2.600653 
 1870000   0.79928812  -0.17483996    1.4075436    1.1803427   -5.1185042    6.5260478    2.5878863 
 1880000   0.79684165  -0.20916634    1.4004101    1.1767299   -5.1226433    6.5230534      2.57714 
 1890000   0.80142824  -0.19968473    1.3974858    1.1835031   -5.1279295    6.5254153     2.580989 
 1900000   0.79828499   -0.1452045    1.4077168    1.1788614   -5.1180899    6.5258067    2.5865781 
 1910000   0.79851479  -0.13920517    1.4136475    1.1792007   -5.1095336    6.5231811    2.5928482 
 1920000   0.79688703  -0.21241863    1.4059421    1.1767969   -5.1184538    6.5243959    2.5827391 
 1930000   0.80748652  -0.13952272    1.4014442    1.1924497   -5.1180349     6.519479    2.5938938 
 1940000    0.8047431  -0.14042915    1.4053311    1.1883983   -5.1196462    6.5249773    2.5937294 
 1950000   0.80314846  -0.20238428    1.4077085    1.1860435   -5.1184923    6.5262008    2.5937519 
 1960000   0.79602903  -0.18278855    1.4098005    1.1755299   -5.1137445    6.5235451    2.5853304 
 1970000   0.79837461  -0.16740186     1.409816    1.1789937   -5.1141997    6.5240156    2.5888097 
 1980000    0.8023475  -0.24539425    1.4005831    1.1848607    -5.124704    6.5252871    2.5854438 
 1990000   0.80382892  -0.19972718    1.4193883    1.1870483   -5.1093858    6.5287741    2.6064366 
 2000000   0.79801836  -0.13327681    1.4110683    1.1784676   -5.1136484    6.5247167    2.5895359 
 2010000   0.79648742  -0.19592746    1.4088738    1.1762068   -5.1173054    6.5261792    2.5850806 
 2020000   0.79847896  -0.22682512    1.4094823    1.1791478   -5.1158653    6.5253476    2.5886301 
 2030000   0.79736811  -0.25035783    1.4022263    1.1775074   -5.1220252    6.5242515    2.5797336 
 2040000    0.7988083  -0.10227528     1.422164    1.1796342   -5.1047132    6.5268772    2.6017982 
 2050000   0.79991843  -0.17668859    1.4014059    1.1812735   -5.1231795    6.5245854    2.5826794 
 2060000   0.80809207  -0.23347674    1.4095046    1.1933439   -5.1185616    6.5280663    2.6028485 
 2070000   0.80011128  -0.15270982    1.4129299    1.1815583   -5.1117801      6.52471    2.5944882 
 2080000   0.79929699  -0.17182899    1.4109671    1.1803558   -5.1168463    6.5278134    2.5913229 
 2090000   0.80090977  -0.19098003    1.4147976    1.1827375   -5.1088232    6.5236208    2.5975351 
 2100000   0.80071979  -0.22920581    1.4073468    1.1824569    -5.117535    6.5248819    2.5898038 
 2110000   0.79796167  -0.13966256     1.407438    1.1783839   -5.1185585    6.5259965    2.5858219 
 2120000   0.79747854  -0.16922327    1.4018119    1.1776704   -5.1225936    6.5244055    2.5794823 
 2130000   0.79460091  -0.19099145    1.4070664    1.1734209   -5.1159451    6.5230115    2.5804873 
 2140000   0.79937061  -0.15590483    1.4098322    1.1804646   -5.1137036    6.5235358    2.5902967 
 2150000    0.8002987  -0.11028134    1.4186233    1.1818351   -5.1059327     6.524556    2.6004584 
 2160000   0.80288796  -0.18985608     1.407765    1.1856588   -5.1217991    6.5295641    2.5934238 
 2170000    0.8013019  -0.17303221    1.4127164    1.1833166    -5.109352    6.5220685     2.596033 
 2180000   0.79755632  -0.20491437    1.4083377    1.1777853   -5.1157849    6.5241226     2.586123 
 2190000   0.80157295  -0.13358652    1.4101522    1.1837168   -5.1141567    6.5243089     2.593869 
 2200000   0.79796613   -0.1458661    1.4086252    1.1783905   -5.1156124    6.5242377    2.5870157 
 2210000    0.8046511  -0.18382795    1.4054133    1.1882625   -5.1195513    6.5249647    2.5936758 
 2220000   0.79129981  -0.20986398    1.4067269    1.1685461   -5.1185882    6.5253152     2.575273 
 2230000   0.80541051  -0.20960301    1.4045294    1.1893839   -5.1188296     6.523359    2.5939134 
 2240000   0.79643514  -0.24279731    1.4080534    1.1761296   -5.1150413    6.5230947     2.584183 
 2250000   0.80214329  -0.18849831     1.405017    1.1845591    -5.118056    6.5230729     2.589576 
 2260000   0.80429075  -0.26291079    1.3999112    1.1877303   -5.1264866    6.5263978    2.5876415 
 2270000   0.79304245  -0.16894968    1.4130264    1.1711195   -5.1157043    6.5287306    2.5841458 
 2280000   0.79686906  -0.20996823    1.4134894    1.1767704   -5.1130766    6.5265659    2.5902598 
 2290000   0.79803118  -0.23170118    1.4111241    1.1784865   -5.1172936    6.5284177    2.5896106 
 2300000   0.80244514  -0.17891349    1.4122531    1.1850048   -5.1134076    6.5256607    2.5972579 
 2310000    0.8040729  -0.20270214    1.4094493    1.1874086   -5.1155466    6.5249958    2.5968579 
 2320000   0.80028752  -0.14665878    1.4048244    1.1818186   -5.1176357      6.52246     2.586643 
 2330000   0.80464419   -0.2349807    1.4109013    1.1882523   -5.1137382    6.5246396    2.5991536 
 2340000   0.79542034  -0.20636206    1.4071913     1.174631   -5.1183819    6.5255732    2.5818223 
 2350000   0.79733218  -0.18348727    1.4127883    1.1774543   -5.1132906     6.526079    2.5902426 
 2360000   0.80829665  -0.19883406    1.4055532     1.193646   -5.1174346    6.5229878    2.5991992 
 2370000   0.79994205  -0.18233932    1.4089513    1.1813084   -5.1174547     6.526406    2.5902598 
 2380000   0.79748846  -0.21060758    1.4047967    1.1776851   -5.1192112    6.5240079    2.5824818 
 2390000   0.79904195  -0.24288494    1.4072388    1.1799792   -5.1141561    6.5213949     2.587218 
 2400000   0.80121583  -0.15776996    1.4082451    1.1831895   -5.1156161    6.5238612    2.5914346 
 2410000   0.80550085  -0.20454707    1.4038613    1.1895173   -5.1191948    6.5230561    2.5933786 
 2420000   0.79850187  -0.13475467    1.4128215    1.1791816   -5.1117873    6.5246088    2.5920031 
 2430000   0.80465696  -0.15381295    1.4096571    1.1882711   -5.1121034    6.5217605    2.5979282 
 2440000   0.80363941  -0.14472302    1.4115675    1.1867685   -5.1137199    6.5252874     2.598336 
 2450000      0.79719  -0.22581594    1.3977243    1.1772444   -5.1234252    6.5211495    2.5749686 
 2460000   0.80326487  -0.15650738    1.4102072    1.1862154   -5.1150507    6.5252579    2.5964226 
 2470000   0.79863564  -0.16294812    1.4205703    1.1793792   -5.1072409    6.5278112    2.5999495 
 2480000   0.79444265  -0.13473478    1.4182158    1.1731872   -5.1050869    6.5233027     2.591403 
 2490000   0.80122109  -0.19477378    1.4053859    1.1831972   -5.1224777    6.5278636    2.5885831 
 2500000   0.79655043  -0.15093409    1.4130335    1.1762999   -5.1128856    6.5259191    2.5893334 
 2510000   0.79785391  -0.16860233    1.4060801    1.1782248   -5.1160716    6.5221516    2.5843049 
 2520000   0.79812167  -0.15395301    1.4038609    1.1786202   -5.1178019    6.5216628    2.5824811 
 2530000   0.80242966   -0.1721415     1.405687     1.184982   -5.1164888    6.5221758     2.590669 
 2540000   0.79590936  -0.14390065    1.4162473    1.1753532   -5.1072954    6.5235427    2.5916005 
 2550000   0.79408818  -0.15858111    1.4026601    1.1726638   -5.1234274    6.5260875    2.5753239 
 2560000    0.8041551  -0.16946433    1.4080205      1.18753   -5.1230304    6.5310508    2.5955505 
 2570000   0.79712462   -0.1648817    1.4029003    1.1771478   -5.1198557     6.522756    2.5800481 
 2580000   0.80374989  -0.12935254     1.403847    1.1869316   -5.1198115    6.5236585    2.5907786 
 2590000   0.79283328  -0.23667459    1.3971306    1.1708106   -5.1273516    6.5244822    2.5679412 
 2600000    0.8079456  -0.11132517    1.4202879    1.1931276   -5.1065938    6.5268817    2.6134155 
 2610000   0.79828147  -0.20345085    1.4129755    1.1788562      -5.1135    6.5264755    2.5918316 
 2620000   0.80371381  -0.18180867    1.4095362    1.1868783   -5.1168088     6.526345    2.5964145 
 2630000   0.80216001  -0.17522694    1.4139027    1.1845838   -5.1122113     6.526114    2.5984865 
 2640000   0.80099125  -0.10053389    1.4159765    1.1828578   -5.1113317    6.5273083    2.5988343 
 2650000   0.80118598  -0.16552504    1.4099013    1.1831454    -5.114373    6.5242743    2.5930467 
 2660000   0.80055579  -0.18005786    1.4170724    1.1822147   -5.1118176      6.52889    2.5992871 
 2670000   0.80811954  -0.12764856    1.4129725    1.1933845   -5.1130419    6.5260144    2.6063569 
 2680000   0.79735367  -0.13073202    1.4114923    1.1774861   -5.1121908     6.523683    2.5889783 
 2690000   0.79696538  -0.15746617    1.4133146    1.1769126   -5.1110775    6.5243922    2.5902273 
 2700000   0.80414382  -0.23016042    1.4042441    1.1875133   -5.1186414    6.5228855    2.5917574 
 2710000   0.80123072  -0.13640753    1.4120003    1.1832115   -5.1121523    6.5241527    2.5952118 
 2720000   0.80449423  -0.17422752    1.4139238    1.1880308   -5.1153787    6.5293025    2.6019546 
 2730000   0.79480857  -0.14689911    1.4101369    1.1737276   -5.1132211    6.5233579    2.5838644 
 2740000    0.7978007   -0.1759001    1.4057291    1.1781462   -5.1183235    6.5240526    2.5838753 
 2750000   0.79670229  -0.17122452    1.4142376    1.1765241    -5.108285    6.5225226    2.5907617 
 2760000   0.79875251    -0.196006    1.4050664    1.1795518   -5.1193074    6.5243738    2.5846182 
 2770000   0.79971277  -0.16963932    1.4135555    1.1809698   -5.1118169    6.5253723    2.5945253 
 2780000   0.80144648  -0.16924125    1.4154946    1.1835301   -5.1116766    6.5271712    2.5990247 
 2790000    0.7877932  -0.17363679    1.3972767    1.1633677   -5.1275106    6.5247874    2.5606444 
 2800000   0.79919845  -0.18844198    1.4079912    1.1802103   -5.1179284    6.5259196    2.5882015 
 2810000   0.79924671  -0.17152829    1.4040863    1.1802816    -5.122245    6.5263313    2.5843678 
 2820000   0.80685419  -0.13490693    1.4148509    1.1915159   -5.1107441     6.525595    2.6063668 
 2830000   0.80119784  -0.13472595    1.4115362    1.1831629   -5.1134876    6.5250238    2.5946991 
 2840000   0.80100406  -0.13818195    1.4108171    1.1828767   -5.1184068    6.5292239    2.5936939 
 2850000   0.80278699  -0.21467054    1.4067744    1.1855097   -5.1175022    6.5242766     2.592284 
 2860000   0.80195271  -0.11537271    1.4169461    1.1842777   -5.1067342    6.5236803    2.6012237 
 2870000   0.79427809  -0.18291572     1.408716    1.1729442   -5.1162493    6.5249652    2.5816602 
 2880000   0.80269429  -0.17740527    1.4087549    1.1853728    -5.116518    6.5252729    2.5941277 
 2890000   0.79971731  -0.20296655    1.4126174    1.1809765   -5.1145749    6.5271923    2.5935939 
 2900000   0.80076065  -0.15459035    1.4116293    1.1825173   -5.1153199    6.5269492    2.5941466 
 2910000    0.8006251  -0.19307576    1.4111391    1.1823171   -5.1169479     6.528087    2.5934563 
 2920000   0.81061259  -0.20439143    1.4089591    1.1970661   -5.1182068    6.5271659    2.6060252 
 2930000   0.79474075  -0.23106297    1.4028245    1.1736274   -5.1187408    6.5215653    2.5764519 
 2940000   0.79135979   -0.1592475    1.4056047    1.1686346    -5.118357    6.5239617    2.5742394 
 2950000   0.79160265  -0.18808461    1.4121283    1.1689933   -5.1122379    6.5243662    2.5811216 
 2960000    0.7997957  -0.14030901    1.4237352    1.1810923   -5.1024343    6.5261695    2.6048275 
 2970000   0.80941089  -0.15422704    1.4094445    1.1952915   -5.1142248    6.5236693    2.6047359 
 2980000   0.79579341  -0.16748711    1.4053003    1.1751819   -5.1192721    6.5245724    2.5804822 
 2990000   0.80501918  -0.20233453    1.4040041     1.188806   -5.1232868    6.5272909    2.5928101 
 3000000    0.8035075  -0.16207634    1.4139441    1.1865737   -5.1137192    6.5276633    2.6005178 
 3010000   0.79964366  -0.18996631    1.4104681    1.1808678   -5.1142655    6.5247336    2.5913358 
 3020000   0.79558534  -0.12825176    1.4165413    1.1748747   -5.1138696    6.5304109     2.591416 
 3030000   0.79856749  -0.11763621    1.4112571    1.1792785   -5.1150565    6.5263136    2.5905357 
 3040000   0.79706463  -0.13477561    1.4104367    1.1770592   -5.1131151    6.5235518    2.5874959 
 3050000   0.79589601  -0.22674693     1.402529    1.1753335   -5.1212407    6.5237697    2.5778624 
 3060000   0.80439273  -0.12360092    1.4167618    1.1878809   -5.1065827    6.5233445    2.6046427 
 3070000   0.79917559   -0.1871812    1.4039493    1.1801765    -5.124547    6.5284964    2.5841259 
 3080000    0.8020192   -0.1137259    1.4212142    1.1843758   -5.1051795    6.5263937      2.60559 
 3090000   0.80424341  -0.19928025     1.411341    1.1876604   -5.1145417    6.5258827    2.5990014 
 3100000   0.80079812  -0.14598302     1.406574    1.1825726   -5.1198957    6.5264697    2.5891466 
 3110000   0.80218573  -0.20028038    1.4100499    1.1846217   -5.1137142    6.5237642    2.5946717 
 3120000    0.8056448  -0.13422124    1.4144517    1.1897299   -5.1107533     6.525205    2.6041816 
 3130000   0.79855994  -0.18961951    1.4025035    1.1792674   -5.1221868    6.5246903    2.5817709 
 3140000   0.79759503   -0.1585487     1.410268    1.1778425   -5.1124503    6.5227183    2.5881105 
 3150000    0.7992521  -0.21532176    1.4071457    1.1802895   -5.1170852    6.5242309    2.5874352 
 3160000   0.79977314 -0.069934575     1.419927     1.181059   -5.1075502    6.5274771     2.600986 
 3170000   0.79369757  -0.17536328    1.4056291    1.1720869   -5.1202622    6.5258913     2.577716 
 3180000   0.80346489  -0.15513499    1.4111485    1.1865107   -5.1154888    6.5266373    2.5976592 
 3190000   0.79779756  -0.17915055    1.4064482    1.1781416   -5.1199176    6.5263658    2.5845898 
 3200000   0.80306921  -0.18256831    1.4078641    1.1859264   -5.1185354    6.5263995    2.5937905 
 3210000    0.8036324   -0.1872543    1.4084155    1.1867581   -5.1166017    6.5250172    2.5951736 
 3220000    0.8086205  -0.17669815    1.4065754    1.1941243   -5.1186014    6.5251768    2.6006997 
 3230000   0.79808456  -0.19464474    1.4116878    1.1785654   -5.1136359    6.5253237    2.5902532 
 3240000    0.8037611  -0.15205581    1.4114559    1.1869482   -5.1137478    6.5252037    2.5984041 
 3250000   0.80289674  -0.13333722    1.4149589    1.1856717   -5.1115221    6.5264811    2.6006306 
 3260000   0.79701101  -0.17632948    1.4108678      1.17698   -5.1138219    6.5246898    2.5878479 
 3270000   0.79988491  -0.26943503     1.411972     1.181224   -5.1127128    6.5246848     2.593196 
 3280000   0.80016174   -0.1509236    1.4124515    1.1816328   -5.1134727    6.5259242    2.5940844 
 3290000   0.79918365  -0.13191636    1.4035474    1.1801885   -5.1199956    6.5235431    2.5837359 
 3300000   0.80160925  -0.16759794    1.4101358    1.1837704   -5.1179548    6.5280905    2.5939062 
 3310000   0.80571913  -0.16293474    1.4157496    1.1898397   -5.1105244     6.526274    2.6055893 
 3320000   0.79823126  -0.23191231    1.3981164     1.178782   -5.1285489    6.5266653    2.5768984 
 3330000   0.79868102   -0.1770947    1.4087521    1.1794462    -5.116138      6.52489    2.5881983 
 3340000   0.79659749  -0.10587962    1.4107077    1.1763694   -5.1133272    6.5240349    2.5870771 
 3350000    0.7972745    -0.224443    1.4081328    1.1773691   -5.1170464    6.5251792    2.5855019 
 3360000    0.8029036  -0.17352528    1.4096308    1.1856819    -5.117197    6.5268278    2.5953127 
 3370000   0.80535608  -0.23027555    1.4043623    1.1893035   -5.1207842    6.5251465    2.5936658 
 3380000   0.79968205  -0.14216696    1.4130622    1.1809245   -5.1084385    6.5215007    2.5939867 
 3390000   0.80517029  -0.17944288    1.4101026    1.1890292   -5.1149081    6.5250107    2.5991318 
 3400000   0.79463217  -0.13004098    1.4148653    1.1734671   -5.1087971    6.5236623    2.5883324 
 3410000   0.79436505   -0.1867099    1.4061175    1.1730726   -5.1193272    6.5254447    2.5791901 
 3420000   0.80266454  -0.24884355    1.3997589    1.1853288    -5.127347    6.5271059    2.5850878 
 3430000   0.79722652  -0.15294865    1.3981462    1.1772983   -5.1233043    6.5214504    2.5754444 
 3440000   0.80343255 -0.092287611    1.4180206     1.186463     -5.10849    6.5265105    2.6044835 
 3450000   0.80203209  -0.21257071    1.4053793    1.1843949   -5.1198581    6.5252374    2.5897741 
 3460000   0.79343689  -0.21031323    1.3991534     1.171702   -5.1252542    6.5244076    2.5708554 
 3470000   0.79798053  -0.10135274    1.4118011    1.1784118   -5.1097026    6.5215037    2.5902129 
 3480000   0.80332054  -0.21735136    1.4048415    1.1862976   -5.1223707    6.5272122    2.5911391 
 3490000    0.8013041  -0.23963306    1.4061019    1.1833198   -5.1175623    6.5236642    2.5894217 
 3500000   0.80016074  -0.16461831    1.4087189    1.1816314   -5.1204992    6.5292181    2.5903502 
 3510000   0.79745165  -0.15937225    1.4128806    1.1776307   -5.1099665    6.5228471    2.5905114 
 3520000   0.79685067  -0.16540215    1.4112712    1.1767432    -5.112921    6.5241922    2.5880144 
 3530000   0.79529752  -0.14108816    1.4154767    1.1744496   -5.1122992    6.5277759    2.5899263 
 3540000   0.79876938  -0.21477172    1.4060949    1.1795767   -5.1178901    6.5239849    2.5856715 
 3550000   0.79940328  -0.13905832    1.4161843    1.1805128   -5.1092606    6.5254449    2.5966971 
 3560000   0.80624676  -0.17389582     1.408088    1.1906189   -5.1209267    6.5290147    2.5987068 
 3570000   0.80217877  -0.20045997    1.4080355    1.1846115   -5.1178212    6.5258567     2.592647 
 3580000   0.80150194  -0.21038834    1.4000284     1.183612   -5.1207656     6.520794    2.5836404 
 3590000   0.79634509  -0.18326798    1.4079318    1.1759966   -5.1186986    6.5266304    2.5839284 
 3600000   0.80558611  -0.21718514    1.4021964    1.1896432   -5.1220131    6.5242095    2.5918396 
 3610000   0.79772865  -0.17558932     1.408965    1.1780398   -5.1175239    6.5264888    2.5870048 
 3620000   0.80004901  -0.19100796    1.4188446    1.1814664   -5.1094057    6.5282502     2.600311 
 3630000   0.80161354  -0.11258226    1.4028444    1.1837768   -5.1194465    6.5222909    2.5866212 
 3640000    0.7951865  -0.28505992    1.3954896    1.1742857   -5.1300933    6.5255829    2.5697753 
 3650000   0.80661438  -0.18429506    1.4113244    1.1911617   -5.1152439    6.5265683    2.6024861 
 3660000   0.79320685  -0.18410705     1.413194    1.1713623   -5.1132379    6.5264319    2.5845563 
 3670000   0.79532045  -0.17779551    1.4091893    1.1744835   -5.1165735    6.5257628    2.5836728 
 3680000   0.80772012  -0.13036991    1.4101388    1.1927946   -5.1151474    6.5252862    2.6029334 
 3690000   0.80377115  -0.14279525    1.4107662     1.186963   -5.1132465    6.5240126    2.5977292 
 3700000   0.80521472  -0.15734276     1.406856    1.1890948    -5.118473     6.525329    2.5959508 
 3710000   0.80323035  -0.13616059    1.4022889    1.1861644   -5.1189759    6.5212647    2.5884532 
 3720000   0.80836837  -0.19378852    1.4052771    1.1937519    -5.121287    6.5265641     2.599029 
 3730000   0.80140639  -0.24830427     1.408758    1.1834709   -5.1178447    6.5266027    2.5922289 
 3740000   0.80467022  -0.18505547    1.4094558    1.1882907   -5.1155619    6.5250177    2.5977465 
 3750000   0.79620373  -0.08449072    1.4135035    1.1757879   -5.1128686    6.5263721    2.5892914 
 3760000   0.79659799  -0.12798973    1.4161833    1.1763701   -5.1109795    6.5271628    2.5925534 
 3770000   0.80363535  -0.14445137    1.4066597    1.1867625   -5.1174475    6.5241072    2.5934222 
 3780000   0.79875155  -0.14246832    1.4068758    1.1795504   -5.1179208    6.5247966    2.5864261 
 3790000    0.8039397  -0.17314741    1.4049557    1.1872119   -5.1209964    6.5259521    2.5921677 
 3800000   0.79304384  -0.18195692     1.400597    1.1711215   -5.1210359    6.5216328    2.5717185 
 3810000   0.80062233  -0.18982273    1.4060876     1.182313   -5.1195199    6.5256074    2.5884006 
 3820000   0.80590437  -0.18929884    1.4079977    1.1901132   -5.1175246    6.5255224     2.598111 
 3830000   0.80245285  -0.24550491     1.402846    1.1850162   -5.1213131    6.5241591    2.5878623 
 3840000   0.80315217  -0.17424596     1.416576    1.1860489   -5.1086876    6.5252636     2.602625 
 3850000   0.80368859   -0.1739595    1.4055628    1.1868411   -5.1197331    6.5252959    2.5924039 
 3860000   0.80432023  -0.14298037    1.4120858    1.1877739   -5.1149383    6.5270241    2.5998597 
 3870000   0.79930902  -0.13162541    1.4119528    1.1803736   -5.1118637    6.5238165    2.5923264 
 3880000   0.80005015  -0.19732505    1.4105812     1.181468   -5.1142265    6.5248078    2.5920493 
 3890000   0.80043298  -0.19238854    1.4139188    1.1820334   -5.1104956    6.5244144    2.5959522 
 3900000   0.80201286  -0.15386272    1.4191619    1.1843665   -5.1079072    6.5270691    2.6035284 
 3910000   0.79669889   -0.1403425    1.4158067    1.1765191   -5.1079101    6.5237168    2.5923258 
 3920000   0.80035882  -0.17777589    1.4122203    1.1819239   -5.1160759    6.5282962    2.5941442 
 3930000   0.80285701   -0.1846363    1.4162734    1.1856131   -5.1108896    6.5271629    2.6018864 
 3940000   0.80017667  -0.18144834    1.4055911    1.1816549   -5.1214506    6.5270416     2.587246 
 3950000   0.79835268  -0.18279419    1.4061578    1.1789613   -5.1182343    6.5243921    2.5851191 
 3960000   0.79436348  -0.14770247    1.4146537    1.1730703   -5.1128136    6.5274674    2.5877241 
 3970000   0.80600103  -0.20276839     1.410105     1.190256   -5.1177742    6.5278792     2.600361 
 3980000   0.80270068  -0.19568047    1.4034642    1.1853822   -5.1209561    6.5244203    2.5888464 
 3990000   0.79661386  -0.22265269     1.409131    1.1763935   -5.1153928    6.5245237    2.5855245 
 4000000   0.80167834  -0.16793171    1.4165941    1.1838725   -5.1059773    6.5225714    2.6004666 
 4010000   0.80377285  -0.15387865    1.4136505    1.1869655   -5.1101002    6.5237507     2.600616 
 4020000   0.79913561  -0.13250032    1.4118556    1.1801175    -5.114072    6.5259277    2.5919731 
 4030000   0.79888281  -0.21291037    1.4013619    1.1797442   -5.1238439    6.5252058    2.5811061 
 4040000   0.80216474  -0.13119893    1.4129949    1.1845908   -5.1142662    6.5272611    2.5975857 
 4050000   0.79728634  -0.22378171    1.4111323    1.1773866   -5.1137016    6.5248339    2.5885189 
 4060000   0.79104049  -0.21596771    1.4013019    1.1681631   -5.1271614    6.5284633     2.569465 
 4070000   0.80122903  -0.20037657    1.4048272     1.183209   -5.1217741    6.5266013    2.5880362 
 4080000   0.80189581  -0.18036608     1.409063    1.1841936   -5.1175113    6.5265742    2.5932566 
 4090000   0.80333926  -0.17740291    1.4072503    1.1863252   -5.1173047    6.5245549    2.5935755 
 4100000   0.79590502  -0.11103332    1.4121268    1.1753468   -5.1133786    6.5255054    2.5874736 
 4110000   0.80178168  -0.16115086    1.4126627    1.1840251   -5.1131008    6.5257636    2.5966878 
 4120000   0.79664772   -0.1067053    1.4044116    1.1764435   -5.1172274     6.521639    2.5808551 
 4130000    0.8030786  -0.17186383    1.4114881    1.1859403   -5.1125759     6.524064    2.5974284 
 4140000   0.80143043  -0.18043948    1.4108744    1.1835064   -5.1169006    6.5277751    2.5943808 
 4150000   0.80215691  -0.14298387    1.4134535    1.1845792   -5.1124896    6.5259432    2.5980327 
 4160000   0.80631075  -0.20129216    1.4148364    1.1907134   -5.1116214    6.5264578    2.6055497 
 4170000   0.80137058  -0.19490735    1.4106462     1.183418    -5.111592    6.5222382    2.5940642 
 4180000   0.79215881   -0.1833953    1.4036061    1.1698146    -5.122994    6.5266001    2.5734207 
 4190000   0.80581208  -0.17150271    1.4092812    1.1899769   -5.1117187    6.5209998    2.5992581 
 4200000   0.80541473  -0.28361351    1.4005455    1.1893902   -5.1210422    6.5215877    2.5899357 
 4210000   0.80880032  -0.14195729    1.4172606    1.1943898    -5.107324    6.5245846    2.6116504 
 4220000   0.80527723  -0.21684032    1.4062034    1.1891871   -5.1187436     6.524947    2.5953905 
 4230000     0.802155  -0.14790867    1.4073838    1.1845764   -5.1150713    6.5224552    2.5919602 
 4240000   0.79619041  -0.17834198     1.407527    1.1757682   -5.1175526    6.5250796    2.5832952 
 4250000   0.79500321  -0.13630886    1.4095661     1.174015   -5.1133411    6.5229072    2.5835811 
 4260000    0.8006437  -0.18660902    1.4090259    1.1823446   -5.1142713    6.5232971    2.5913704 
 4270000   0.79821767  -0.19103376    1.4003831    1.1787619   -5.1239548     6.524338    2.5791451 
 4280000     0.804981  -0.19871264    1.4083365    1.1887496    -5.118134    6.5264705    2.5970862 
 4290000   0.80003505  -0.18321925    1.4120211    1.1814458   -5.1177035    6.5297247    2.5934669 
 4300000   0.79854986  -0.14205106    1.4101795    1.1792525   -5.1144449    6.5246244     2.589432 
 4310000   0.80896709  -0.20074871    1.4081393    1.1946361    -5.114892    6.5230313    2.6027754 
 4320000   0.80156801  -0.13468345    1.4166909    1.1837095   -5.1110141    6.5277051    2.6004004 
 4330000   0.80248358  -0.16632973    1.4102199    1.1850616   -5.1163287    6.5265486    2.5952815 
 4340000   0.80144219  -0.19987069    1.4101228    1.1835237   -5.1153802     6.525503    2.5936466 
 4350000   0.80466973   -0.1097007    1.4119124      1.18829   -5.1133862    6.5252986    2.6002024 
 4360000   0.80073576  -0.15693937    1.4043305    1.1824805   -5.1242086    6.5285391    2.5868111 
 4370000   0.80195439  -0.16528255    1.4097894    1.1842801   -5.1125616     6.522351    2.5940695 
 4380000    0.8033485  -0.13289429    1.4074428    1.1863389   -5.1149677    6.5224104    2.5937816 
 4390000   0.80668154  -0.23378107    1.4033852    1.1912609   -5.1214042    6.5247894    2.5946461 
 4400000   0.79644036  -0.18334857    1.4126147    1.1761373   -5.1153546    6.5279693     2.588752 
 4410000   0.80712411  -0.24248379    1.4078282    1.1919145   -5.1194567    6.5272849    2.5997426 
 4420000   0.79615424  -0.15912681    1.4122482    1.1757148   -5.1156041    6.5278523     2.587963 
 4430000   0.80015644  -0.11902588     1.416191     1.181625   -5.1132235    6.5294145     2.597816 
 4440000   0.79177157   -0.1543524    1.4051661    1.1692427   -5.1178191    6.5229852    2.5744088 
 4450000   0.79811941  -0.19262517    1.4049379    1.1786168   -5.1215508    6.5264887    2.5835547 
 4460000   0.79454132  -0.14751875    1.4126752    1.1733329   -5.1129485    6.5256237    2.5860081 
 4470000   0.79385214  -0.19055461    1.4101793    1.1723152   -5.1122036     6.522383    2.5824945 
 4480000   0.79897438  -0.16676725    1.4072149    1.1798794   -5.1197135    6.5269285    2.5870943 
 4490000    0.8025167  -0.20325034    1.4044613    1.1851105   -5.1218097    6.5262711    2.5895718 
 4500000   0.80468351  -0.11244339    1.4189756    1.1883103   -5.1065921    6.5255677    2.6072859 
 4510000   0.80389692  -0.13985414     1.408291    1.1871487   -5.1177127    6.5260037    2.5954397 
 4520000   0.80677919  -0.19264371    1.4025895    1.1914051   -5.1233807    6.5259702    2.5939946 
 4530000   0.80780942   -0.2391218    1.4003687    1.1929265   -5.1212865    6.5216552    2.5932952 
 4540000   0.80104857  -0.22246748    1.4008562    1.1829425   -5.1229079    6.5237641    2.5837986 
 4550000    0.8032225  -0.21955166    1.3994492    1.1861528   -5.1220055    6.5214548    2.5856021 
 4560000      0.80023  -0.11981836    1.4072648    1.1817336   -5.1146566    6.5219214    2.5889984 
 4570000   0.79322588  -0.16997089    1.4165202    1.1713904   -5.1059442    6.5224643    2.5879105 
 4580000   0.79645069  -0.17670689     1.399872    1.1761526   -5.1243741    6.5242462    2.5760246 
 4590000   0.80738449  -0.19465125    1.4056811     1.192299   -5.1159851    6.5216662    2.5979801 
 4600000   0.80046699  -0.17387375      1.40932    1.1820836   -5.1161402    6.5254602    2.5914036 
 4610000    0.7985335  -0.18272604    1.4103323    1.1792283   -5.1142108    6.5245431    2.5895606 
 4620000   0.80364456  -0.15603501    1.4144996    1.1867761    -5.114741    6.5292407    2.6012757 
 4630000    0.8069966  -0.13208476    1.4086965    1.1917262   -5.1163745     6.525071    2.6004226 
 4640000   0.80451159  -0.14342664    1.4065454    1.1880564   -5.1198632    6.5264086    2.5946018 
 4650000   0.80117577  -0.19513467    1.4147181    1.1831303   -5.1055966    6.5203147    2.5978484 
 4660000   0.80361106  -0.20377246    1.4027925    1.1867266    -5.123397    6.5261895    2.5895191 
 4670000   0.79570743  -0.22450062    1.4112494     1.175055    -5.113844    6.5250934    2.5863044 
 4680000   0.79444291  -0.16625416     1.406681    1.1731876   -5.1187419    6.5254229    2.5798686 
 4690000    0.7995083  -0.19636947     1.408661    1.1806679   -5.1184048    6.5270658    2.5893289 
 4700000   0.79951943  -0.18700137    1.4103323    1.1806843   -5.1128664    6.5231987    2.5910166 
 4710000   0.79509779  -0.16028833     1.411533    1.1741547   -5.1166173    6.5281503    2.5856877 
 4720000   0.79733333  -0.15199592    1.4108326     1.177456   -5.1152971    6.5261297    2.5882886 
 4730000   0.80135928  -0.18965843    1.4080344    1.1834013    -5.115526    6.5235604    2.5914357 
 4740000   0.79593618   -0.1372391    1.4169816    1.1753928   -5.1087716    6.5257532    2.5923744 
 4750000   0.81214235  -0.18028018    1.4061235    1.1993251   -5.1166618    6.5227853    2.6054486 
 4760000    0.7974711  -0.21925254    1.4040898    1.1776595   -5.1222821    6.5263719    2.5817493 
 4770000   0.80369538  -0.20758206    1.4108165    1.1868511   -5.1138694    6.5246859    2.5976676 
 4780000   0.79965641  -0.14583309    1.4102844    1.1808866   -5.1154364    6.5257208     2.591171 
 4790000   0.79822831  -0.14759261    1.4145228    1.1787777     -5.11115    6.5256728    2.5933005 
 4800000   0.79079174  -0.25841849    1.4045991    1.1677958   -5.1225154    6.5271144    2.5723948 
 4810000   0.79496758  -0.16043964     1.409567    1.1739624   -5.1163649    6.5259319    2.5835294 
 4820000   0.79697082  -0.17998544    1.4091099    1.1769207   -5.1161202      6.52523    2.5860305 
 4830000   0.79971467  -0.18207771    1.4099936    1.1809726   -5.1177828    6.5277765    2.5909663 
 4840000   0.79079585  -0.14845734    1.4117118    1.1678018   -5.1140815    6.5257932    2.5795136 
 4850000   0.80449904  -0.18707381    1.4110843    1.1880379   -5.1157481    6.5268323    2.5991222 
 4860000   0.80052083  -0.21817176    1.4017254    1.1821631   -5.1224287    6.5241541    2.5838885 
 4870000   0.79866748  -0.21542126    1.4101112    1.1794262   -5.1134359    6.5235471    2.5895374 
 4880000   0.79813035  -0.12968644    1.4107523     1.178633   -5.1122598    6.5230121    2.5893853 
 4890000   0.80584636  -0.18461808    1.4163882    1.1900276   -5.1121703    6.5285585    2.6064157 
 4900000   0.79779721  -0.22974859    1.4089892     1.178141   -5.1148606    6.5238498    2.5871302 
 4910000   0.79482219   -0.1659145    1.4135169    1.1737477   -5.1129444    6.5264613    2.5872646 
 4920000   0.80051798   -0.1702302    1.4117147    1.1821589   -5.1090224    6.5207371    2.5938736 
 4930000   0.79990419  -0.26497177     1.414815    1.1812525   -5.1114327    6.5262478    2.5960675 
 4940000   0.80565644  -0.17568278    1.4035985    1.1897471   -5.1219317    6.5255302    2.5933456 
 4950000   0.80059318  -0.17247251    1.4113081      1.18227   -5.1162011    6.5275092    2.5935781 
 4960000   0.79835167  -0.15732023    1.4037346    1.1789598   -5.1208938    6.5246284    2.5826945 
 4970000   0.79973288  -0.11650171    1.4193369    1.1809995   -5.1086305    6.5279674    2.6003364 
 4980000   0.79818635  -0.17288744    1.4114026    1.1787157   -5.1168634     6.528266    2.5901183 
 4990000   0.80199137  -0.16713692    1.4065346    1.1843347   -5.1190331    6.5255676    2.5908693 
 5000000   0.80086583   -0.2167017    1.4020747    1.1826726   -5.1245208    6.5265955    2.5847473 
 5010000   0.80255402  -0.15114013    1.4176617    1.1851656   -5.1082848    6.5259465    2.6028274 
 5020000   0.79831711  -0.14134452    1.4131244    1.1789088   -5.1116929    6.5248174    2.5920332 
 5030000   0.79923525  -0.18726611     1.407464    1.1802646   -5.1179708    6.5254349    2.5877287 
 5040000    0.8007387  -0.20583068    1.4065073    1.1824849   -5.1185168     6.525024    2.5889921 
 5050000   0.79662719  -0.15911595    1.4104915    1.1764132   -5.1159941    6.5264856    2.5869047 
 5060000   0.79929882  -0.15940667    1.4074946    1.1803585    -5.117143    6.5246377    2.5878532 
 5070000   0.80285696  -0.17984273    1.4041536     1.185613    -5.118984    6.5231376    2.5897666 
 5080000   0.79588515  -0.18614542    1.4133935    1.1753174   -5.1125059    6.5258994     2.588711 
 5090000   0.80200624 -0.075815754    1.4190866    1.1843567   -5.1078202    6.5269068    2.6034433 
 5100000   0.80987047  -0.15334793    1.4107162    1.1959701   -5.1140778     6.524794    2.6066863 
 5110000   0.80367708  -0.20220375    1.3994623    1.1868241   -5.1265779    6.5260402    2.5862864 
 5120000    0.8002257  -0.19641424    1.4127985    1.1817273   -5.1154231    6.5282216    2.5945258 
 5130000   0.80824239  -0.17849277    1.4128075    1.1935659   -5.1140067    6.5268142    2.6063734 
 5140000   0.79735077  -0.18836932    1.4149707    1.1774818   -5.1123873    6.5273579    2.5924524 
 5150000   0.80248457   -0.2143574    1.4071821    1.1850631    -5.116887    6.5240691    2.5922451 
 5160000   0.80540627  -0.24345398    1.4005292    1.1893777   -5.1230556    6.5235848    2.5899069 
 5170000   0.79897669  -0.18360213    1.4145383    1.1798828   -5.1091011    6.5236395    2.5944212 
 5180000    0.7976571  -0.16277541    1.4095524    1.1779341    -5.112911    6.5224634    2.5874865 
 5190000   0.79439426  -0.16205921    1.4127809    1.1731158   -5.1107828    6.5235637    2.5858966 
 5200000   0.80900267  -0.10514704    1.4132455    1.1946886   -5.1161393    6.5293849    2.6079342 
 5210000   0.79431548  -0.18600481    1.4056645    1.1729994   -5.1211138    6.5267784     2.578664 
 5220000   0.80438023  -0.20237181      1.40556    1.1878625   -5.1187396    6.5242996    2.5934224 
 5230000   0.80015388  -0.20447343    1.4007248    1.1816212   -5.1199864    6.5207112     2.582346 
 5240000   0.80572682  -0.13391376    1.4102144     1.189851    -5.114004    6.5242184    2.6000654 
 5250000   0.80130729  -0.15209785    1.4076401    1.1833245    -5.118708    6.5263481    2.5909647 
 5260000   0.79893633  -0.14835451    1.4096859    1.1798232   -5.1173875    6.5270734    2.5895091 
 5270000   0.80055925  -0.12664935    1.4080243    1.1822199   -5.1136557      6.52168    2.5902442 
 5280000   0.79764424  -0.15107687    1.4106364    1.1779151   -5.1172867    6.5279231    2.5885516 
 5290000   0.79577027  -0.18399889    1.4107864    1.1751478   -5.1139862    6.5247726    2.5859342 
 5300000   0.80224271  -0.17198942      1.40919    1.1847059   -5.1148711    6.5240611    2.5938959 
 5310000   0.79898891   -0.2246533    1.4071895    1.1799009   -5.1180127    6.5252022    2.5870904 
 5320000   0.79463643  -0.17147588    1.4089621    1.1734734   -5.1167785    6.5257406    2.5824355 
 5330000   0.80702115  -0.22285937     1.405372    1.1917624   -5.1210598    6.5264318    2.5971344 
 5340000   0.80451737  -0.19681553    1.4056265     1.188065   -5.1177459    6.5233724    2.5936915 
 5350000   0.79678071  -0.21733027    1.4019302    1.1766399   -5.1170225    6.5189527    2.5785701 
 5360000   0.80535972  -0.21780079    1.4084382    1.1893089   -5.1181187    6.5265569    2.5977471 
 5370000   0.80279158  -0.11191754    1.4229402    1.1855164   -5.1053577     6.528298    2.6084567 
 5380000   0.79957115  -0.10195818    1.4091614    1.1807607   -5.1159727    6.5251342    2.5899221 
 5390000   0.80718684  -0.13170699     1.416752    1.1920071    -5.110959    6.5277109    2.6087591 
 5400000   0.79704087  -0.13371246    1.4056415    1.1770241   -5.1189486    6.5245901    2.5826656 
 5410000   0.80026918  -0.19425108    1.4094981    1.1817915   -5.1158905    6.5253886    2.5912896 
 5420000    0.7981122  -0.12815702     1.412448    1.1786062   -5.1107619    6.5232099    2.5910542 
 5430000   0.80625603  -0.20607615    1.4119208    1.1906325   -5.1145356    6.5264564    2.6025533 
 5440000   0.80143869  -0.20285625    1.4095419    1.1835186   -5.1183605    6.5279024    2.5930605 
 5450000   0.79511294  -0.19649936    1.4101521    1.1741771   -5.1177774    6.5279296    2.5843292 
 5460000   0.79618891  -0.22813886    1.4096991     1.175766   -5.1142486    6.5239478    2.5854651 
 5470000   0.80182816  -0.17985892    1.4099028    1.1840937    -5.113502    6.5234048    2.5939965 
 5480000   0.79911232  -0.18503757    1.4079867    1.1800831   -5.1142553     6.522242    2.5880698 
 5490000   0.79297941  -0.21347916    1.4006529    1.1710264   -5.1198649    6.5205178    2.5716793 
 5500000    0.7987206  -0.19946035    1.4142916    1.1795047   -5.1126548    6.5269464    2.5937963 
 5510000   0.79702829  -0.16451965    1.4115252    1.1770055   -5.1149287    6.5264539    2.5885308 
 5520000   0.79697268  -0.24626274    1.4085457    1.1769234   -5.1174017    6.5259474    2.5854691 
 5530000   0.80065215  -0.24104402    1.4145441    1.1823571   -5.1143953    6.5289394    2.5969012 
 5540000   0.80939916  -0.16686816    1.4128105    1.1952741   -5.1125646    6.5253752    2.6080847 
 5550000   0.80149436  -0.12692955    1.4159852    1.1836008   -5.1099689    6.5259541     2.599586 
 5560000   0.79422156   -0.1919208    1.4031194    1.1728607    -5.121079    6.5241985    2.5759802 
 5570000   0.80551771  -0.16031375    1.4201031    1.1895422   -5.1077794    6.5278826    2.6096453 
 5580000   0.79756585  -0.19803772    1.4034548    1.1777994   -5.1227059    6.5261607    2.5812542 
 5590000   0.80040862  -0.16853926    1.4146629    1.1819974   -5.1105777    6.5252406    2.5966603 
 5600000   0.80396613  -0.17321029    1.4083914     1.187251   -5.1175526     6.525944    2.5956424 
 5610000   0.79939207  -0.12070932    1.4150586    1.1804962   -5.1101639    6.5252225    2.5955549 
 5620000   0.79657569  -0.17709612    1.4068226    1.1763372   -5.1174349    6.5242575    2.5831598 
 5630000   0.79485203  -0.16087249    1.4119278    1.1737918   -5.1154595    6.5273873    2.5857195 
 5640000   0.80580519  -0.21795864    1.4056097    1.1899668   -5.1165352    6.5221449    2.5955765 
 5650000   0.79937499  -0.17252439    1.4092893     1.180471   -5.1168578    6.5261471    2.5897604 
 5660000   0.80328313   -0.1661526    1.4135705    1.1862423   -5.1129246    6.5264951    2.5998128 
 5670000   0.79870658   -0.1658098    1.4086788    1.1794839   -5.1170207    6.5256996    2.5881628 
 5680000   0.79836033   -0.1821562    1.4039333    1.1789726   -5.1194795    6.5234128    2.5829059 
 5690000    0.7908777  -0.11540455    1.4173686    1.1679227   -5.1068389    6.5242075    2.5852913 
 5700000   0.79614508   -0.1836686    1.4033179    1.1757013   -5.1225856    6.5259034    2.5790191 
 5710000   0.79905505  -0.13279288    1.4107149    1.1799985   -5.1138605    6.5245753    2.5907134 
 5720000   0.79801456  -0.18015519    1.4103571     1.178462   -5.1176477    6.5280048    2.5888191 
 5730000   0.80124189  -0.18196095    1.4105878     1.183228   -5.1124957    6.5230835    2.5938157 
 5740000   0.80130584  -0.23746643    1.4073203    1.1833224   -5.1175703    6.5248905    2.5906426 
 5750000    0.8045538  -0.14820078    1.4114356    1.1881188   -5.1140318    6.5254674    2.5995544 
 5760000    0.8042753  -0.15660317     1.413952    1.1877075   -5.1115392    6.5254912    2.6016595 
 5770000   0.79853337  -0.12390679    1.4104044    1.1792282   -5.1158241    6.5262285    2.5896326 
 5780000   0.79583481   -0.1860092    1.4078996    1.1752431   -5.1162942    6.5241938    2.5831427 
 5790000    0.8008583   -0.1391543    1.4182841    1.1826615   -5.1057451    6.5240292    2.6009456 
 5800000   0.80607824  -0.21883533    1.4062671      1.19037   -5.1167459     6.523013    2.5966371 
 5810000    0.8043616  -0.17778273    1.4132802    1.1878349   -5.1106711    6.5239513    2.6011151 
 5820000   0.80053644  -0.20710817    1.4003129    1.1821862   -5.1271063    6.5274193    2.5824991 
 5830000   0.79723135  -0.15878301    1.4173946    1.1773054   -5.1090725    6.5264671       2.5947 
 5840000   0.80431369  -0.12676498    1.4160049    1.1877642   -5.1081115    6.5241164    2.6037691 
 5850000   0.80712245  -0.23595495    1.4074722     1.191912   -5.1188941    6.5263662    2.5993842 
 5860000   0.80435649  -0.16063131    1.4119272    1.1878274   -5.1181398     6.530067    2.5997546 
 5870000   0.79303417  -0.21052514    1.4063014    1.1711073   -5.1150782    6.5213796    2.5774086 
 5880000   0.80123225  -0.12652923    1.4140675    1.1832137   -5.1109397    6.5250072    2.5972812 
 5890000   0.79456036  -0.19313195    1.4086577     1.173361   -5.1159828    6.5246405    2.5820187 
 5900000   0.79097772  -0.23947271    1.4030036    1.1680704   -5.1206166    6.5236202     2.571074 
 5910000   0.79486009  -0.18599162    1.4125916    1.1738037   -5.1125249    6.5251165    2.5863952 
 5920000   0.79696896  -0.16597794    1.4084475    1.1769179   -5.1175231    6.5259705    2.5853654 
 5930000    0.8056993  -0.21054404     1.403118    1.1898104   -5.1228714    6.5259894    2.5929284 
 5940000   0.80840852  -0.16998828    1.4127684    1.1938112    -5.115213    6.5279813    2.6065796 
 5950000   0.80955406  -0.14902271    1.4105909    1.1955029   -5.1132675    6.5238584    2.6060938 
 5960000    0.8030093  -0.16210574      1.40833     1.185838   -5.1154228    6.5237528    2.5941679 
 5970000    0.8010993  -0.20434069    1.4032788    1.1830174   -5.1207975    6.5240763    2.5862961 
 5980000   0.79126855  -0.16638595    1.4065292    1.1684999   -5.1196426    6.5261718    2.5750291 
 5990000   0.80466466  -0.17418472    1.4103299    1.1882825   -5.1143922    6.5247221    2.5986124 
 6000000    0.7972145  -0.20154143     1.403372    1.1772805   -5.1220056    6.5253776    2.5806526 
Loop time of 91385.5 on 216 procs for 6000000 steps with 27475 atoms

Performance: 28363.347 tau/day, 65.656 timesteps/s
99.8% CPU use with 216 MPI tasks x 1 OpenMP threads

MPI task timing breakdown:
Section |  min time  |  avg time  |  max time  |%varavg| %total
---------------------------------------------------------------
Pair    | 1181.5     | 1263.6     | 1402.7     | 124.2 |  1.38
Bond    | 18.051     | 21.692     | 27.757     |  38.6 |  0.02
Kspace  | 84234      | 84445      | 84586      |  25.5 | 92.41
Neigh   | 619.73     | 663.09     | 703.64     |  64.2 |  0.73
Comm    | 1412.3     | 1652.2     | 1943.3     | 293.3 |  1.81
Output  | 2.9507     | 3.0002     | 3.0128     |   0.3 |  0.00
Modify  | 2746.7     | 2882.7     | 3033.7     | 136.0 |  3.15
Other   |            | 453.8      |            |       |  0.50

Nlocal:    127.199 ave 162 max 109 min
Histogram: 4 18 58 87 26 9 7 5 1 1
Nghost:    948.338 ave 1009 max 906 min
Histogram: 9 21 46 36 30 28 27 7 7 5
Neighs:    4649.7 ave 6567 max 3724 min
Histogram: 7 36 75 50 23 7 5 4 5 4

Total # of neighbors = 1004336
Ave neighs/atom = 36.5545
Ave special neighs/atom = 0.633303
Neighbor list builds = 806916
Dangerous builds = 0
System init for write_restart ...
PPPM initialization ...
  using 12-bit tables for long-range coulomb (src/kspace.cpp:332)
  G vector (1/distance) = 1.23543
  grid = 120 120 120
  stencil order = 5
  estimated absolute RMS force accuracy = 9.67447e-05
  estimated relative force accuracy = 9.67447e-05
  using double precision FFTW3
  3d grid and FFT values/proc = 19683 8400
WARNING: Neighbor exclusions used with KSpace solver may give inconsistent Coulombic energies (src/neighbor.cpp:486)
Neighbor list info ...
  update every 1 steps, delay 0 steps, check yes
  max neighbors/atom: 2000, page size: 100000
  master list distance cutoff = 2.8
  ghost atom cutoff = 2.8
  binsize = 1.4, bins = 24 24 24
  7 neighbor lists, perpetual/occasional/extra = 2 5 0
  (1) pair lj/cut, perpetual
      attributes: half, newton on
      pair build: half/bin/newton
      stencil: half/bin/3d/newton
      bin: standard
  (2) pair coul/long, perpetual, skip from (1)
      attributes: half, newton on
      pair build: skip
      stencil: none
      bin: none
  (3) compute rdf, occasional, copy from (1)
      attributes: half, newton on
      pair build: copy
      stencil: none
      bin: none
  (4) compute rdf, occasional, copy from (1)
      attributes: half, newton on
      pair build: copy
      stencil: none
      bin: none
  (5) compute rdf, occasional, copy from (1)
      attributes: half, newton on
      pair build: copy
      stencil: none
      bin: none
  (6) compute rdf, occasional, copy from (1)
      attributes: half, newton on
      pair build: copy
      stencil: none
      bin: none
  (7) compute rdf, occasional, copy from (1)
      attributes: half, newton on
      pair build: copy
      stencil: none
      bin: none
PPPM initialization ...
  using 12-bit tables for long-range coulomb (src/kspace.cpp:332)
  G vector (1/distance) = 1.23543
  grid = 120 120 120
  stencil order = 5
  estimated absolute RMS force accuracy = 9.67447e-05
  estimated relative force accuracy = 9.67447e-05
  using double precision FFTW3
  3d grid and FFT values/proc = 19683 8400
WARNING: Neighbor exclusions used with KSpace solver may give inconsistent Coulombic energies (src/neighbor.cpp:486)
Neighbor list info ...
  update every 1 steps, delay 0 steps, check yes
  max neighbors/atom: 2000, page size: 100000
  master list distance cutoff = 2.8
  ghost atom cutoff = 2.8
  binsize = 1.4, bins = 24 24 24
  7 neighbor lists, perpetual/occasional/extra = 2 5 0
  (1) pair lj/cut, perpetual
      attributes: half, newton on
      pair build: half/bin/newton
      stencil: half/bin/3d/newton
      bin: standard
  (2) pair coul/long, perpetual, skip from (1)
      attributes: half, newton on
      pair build: skip
      stencil: none
      bin: none
  (3) compute rdf, occasional, copy from (1)
      attributes: half, newton on
      pair build: copy
      stencil: none
      bin: none
  (4) compute rdf, occasional, copy from (1)
      attributes: half, newton on
      pair build: copy
      stencil: none
      bin: none
  (5) compute rdf, occasional, copy from (1)
      attributes: half, newton on
      pair build: copy
      stencil: none
      bin: none
  (6) compute rdf, occasional, copy from (1)
      attributes: half, newton on
      pair build: copy
      stencil: none
      bin: none
  (7) compute rdf, occasional, copy from (1)
      attributes: half, newton on
      pair build: copy
      stencil: none
      bin: none
Setting up Verlet run ...
  Unit style    : lj
  Current step  : 6000000
  Time step     : 0.005
Per MPI rank memory allocation (min/avg/max) = 18.6 | 19.84 | 20.61 Mbytes
Step Lx Ly Lz Press Pxx Pyy Pzz PotEng Temp 
 6000000    32.362914    32.362914    32.362914   -0.3957418  -0.27470096  -0.23279674  -0.67972771     1.403372    0.7972145 
 6000010    33.010173     32.04406     32.04406  -0.16887108   -1.0921769   0.32968827   0.25587541    1.4176605   0.80017466 
 6000020    33.657431    31.734449    31.734449 -0.059758034   -1.0823364   0.41622887   0.48683347    1.4376066   0.81153576 
 6000030    34.304689    31.433641    31.433641  0.055162232   -1.2016052   0.63602073   0.73107118    1.4611179   0.82192208 
 6000040    34.951948    31.141229    31.141229  0.073873074    -1.306781   0.76523633   0.76316391    1.4706363   0.84581335 
 6000050    35.599206    30.856828    30.856828   0.22670998   -1.1677419   0.88798296   0.95988891    1.4939176   0.85941848 
 6000060    36.246464     30.58008     30.58008   0.27876864   -1.1334775   0.91756443     1.052219    1.5134189   0.87497143 
 6000070    36.893722    30.310647    30.310647   0.37707825  -0.97515676     1.042797    1.0635945    1.5335669   0.88805131 
 6000080    37.540981    30.048212    30.048212   0.49693788   -0.8317092    1.1230183    1.1995046    1.5461471   0.90425575 
 6000090    38.188239    29.792478    29.792478   0.51274705  -0.80253174    1.1342145    1.2065584    1.5576535   0.91985763 
 6000100    38.835497    29.543164    29.543164   0.55346254  -0.84876992    1.2451144    1.2640431    1.5735132    0.9330178 
Loop time of 1.93259 on 216 procs for 100 steps with 27475 atoms

Performance: 22353.401 tau/day, 51.744 timesteps/s
99.8% CPU use with 216 MPI tasks x 1 OpenMP threads

MPI task timing breakdown:
Section |  min time  |  avg time  |  max time  |%varavg| %total
---------------------------------------------------------------
Pair    | 0.015215   | 0.020407   | 0.039696   |   2.4 |  1.06
Bond    | 0.00017738 | 0.00026935 | 0.00045967 |   0.0 |  0.01
Kspace  | 1.3752     | 1.4009     | 1.417      |   0.6 | 72.49
Neigh   | 0.035012   | 0.037285   | 0.039797   |   0.5 |  1.93
Comm    | 0.039671   | 0.055567   | 0.076633   |   2.8 |  2.88
Output  | 0.014057   | 0.018112   | 0.023789   |   1.4 |  0.94
Modify  | 0.20797    | 0.25437    | 0.30078    |   3.8 | 13.16
Other   |            | 0.1457     |            |       |  7.54

Nlocal:    127.199 ave 161 max 109 min
Histogram: 5 20 65 64 33 15 6 6 1 1
Nghost:    955.806 ave 1015 max 913 min
Histogram: 9 17 33 58 26 36 14 13 6 4
Neighs:    4662.61 ave 6629 max 3723 min
Histogram: 9 43 68 54 16 7 8 4 2 5

Total # of neighbors = 1007124
Ave neighs/atom = 36.656
Ave special neighs/atom = 0.633303
Neighbor list builds = 49
Dangerous builds = 0
PPPM initialization ...
  using 12-bit tables for long-range coulomb (src/kspace.cpp:332)
  G vector (1/distance) = 1.22329
  grid = 128 108 108
  stencil order = 5
  estimated absolute RMS force accuracy = 0.000119763
  estimated relative force accuracy = 0.000119763
  using double precision FFTW3
  3d grid and FFT values/proc = 16875 7128
WARNING: Neighbor exclusions used with KSpace solver may give inconsistent Coulombic energies (src/neighbor.cpp:486)
Neighbor list info ...
  update every 1 steps, delay 0 steps, check yes
  max neighbors/atom: 2000, page size: 100000
  master list distance cutoff = 2.8
  ghost atom cutoff = 2.8
  binsize = 1.4, bins = 28 22 22
  7 neighbor lists, perpetual/occasional/extra = 2 5 0
  (1) pair lj/cut, perpetual
      attributes: half, newton on
      pair build: half/bin/newton
      stencil: half/bin/3d/newton
      bin: standard
  (2) pair coul/long, perpetual, skip from (1)
      attributes: half, newton on
      pair build: skip
      stencil: none
      bin: none
  (3) compute rdf, occasional, copy from (1)
      attributes: half, newton on
      pair build: copy
      stencil: none
      bin: none
  (4) compute rdf, occasional, copy from (1)
      attributes: half, newton on
      pair build: copy
      stencil: none
      bin: none
  (5) compute rdf, occasional, copy from (1)
      attributes: half, newton on
      pair build: copy
      stencil: none
      bin: none
  (6) compute rdf, occasional, copy from (1)
      attributes: half, newton on
      pair build: copy
      stencil: none
      bin: none
  (7) compute rdf, occasional, copy from (1)
      attributes: half, newton on
      pair build: copy
      stencil: none
      bin: none
Setting up Verlet run ...
  Unit style    : lj
  Current step  : 6000100
  Time step     : 0.005
Per MPI rank memory allocation (min/avg/max) = 18.37 | 19.63 | 20.39 Mbytes
Step Lx Ly Lz Press Pxx Pyy Pzz PotEng Temp 
 6000100    38.835497    29.543164    29.543164   0.58721174  -0.99861789    1.3687397    1.3915134    1.5766403    0.9330178 
 6010000    38.835497    29.543164    29.543164  -0.23948903  -0.25278577  -0.24404521  -0.22163613    1.4004714   0.79917521 
 6020000    38.835497    29.543164    29.543164  -0.12016453  -0.12723831  -0.15186717 -0.081388095    1.4144157   0.80079131 
 6030000    38.835497    29.543164    29.543164    -0.201585   -0.1880039  -0.22567568  -0.19107542    1.4025375   0.79678547 
 6040000    38.835497    29.543164    29.543164  -0.21063297  -0.22328384  -0.16914479   -0.2394703    1.4107796   0.79945091 
 6050000    38.835497    29.543164    29.543164  -0.16082428  -0.22650053  -0.12473831    -0.131234    1.4144703   0.79634427 
 6060000    38.835497    29.543164    29.543164  -0.20359807  -0.21935373  -0.20770919   -0.1837313    1.4024201   0.79877538 
 6070000    38.835497    29.543164    29.543164  -0.22638918  -0.21927298  -0.19673505  -0.26315949    1.4114581   0.80162551 
 6080000    38.835497    29.543164    29.543164  -0.14763834  -0.16847992  -0.14128881   -0.1331463    1.4114061   0.80766949 
 6090000    38.835497    29.543164    29.543164  -0.20896272  -0.17878222  -0.24407153  -0.20403442    1.3945465   0.79735935 
 6100000    38.835497    29.543164    29.543164  -0.15612093 -0.087280671  -0.22059603  -0.16048609    1.4124654   0.80131237 
 6100100    38.835497    29.543164    29.543164  -0.18591228  -0.17530641  -0.22448418  -0.15794626    1.4067584   0.79568957 
Loop time of 1340.35 on 216 procs for 100000 steps with 27475 atoms

Performance: 32230.366 tau/day, 74.607 timesteps/s
99.9% CPU use with 216 MPI tasks x 1 OpenMP threads

MPI task timing breakdown:
Section |  min time  |  avg time  |  max time  |%varavg| %total
---------------------------------------------------------------
Pair    | 17.049     | 20.355     | 32.428     |  61.3 |  1.52
Bond    | 0.22562    | 0.28562    | 0.41063    |   6.7 |  0.02
Kspace  | 1210.5     | 1235.2     | 1246       |  18.6 | 92.16
Neigh   | 10.195     | 10.969     | 11.692     |   8.4 |  0.82
Comm    | 25.948     | 33.676     | 57.025     |  85.3 |  2.51
Output  | 0.046086   | 0.046142   | 0.047319   |   0.0 |  0.00
Modify  | 26.411     | 30.644     | 35.369     |  31.3 |  2.29
Other   |            | 9.151      |            |       |  0.68

Nlocal:    127.199 ave 173 max 113 min
Histogram: 17 72 76 27 15 3 3 1 1 1
Nghost:    957.227 ave 1048 max 910 min
Histogram: 14 40 51 41 28 15 18 5 2 2
Neighs:    4650.73 ave 7626 max 3828 min
Histogram: 31 94 53 21 7 3 3 2 0 2

Total # of neighbors = 1004558
Ave neighs/atom = 36.5626
Ave special neighs/atom = 0.633303
Neighbor list builds = 13434
Dangerous builds = 0
Total wall time: 29:53:19
