ITEM: TIMESTEP
0
ITEM: NUMBER OF ATOMS
475
ITEM: BOX BOUNDS pp pp pp
7.1354277009520928e-01 3.3076457229894366e+01
7.1354277009520928e-01 3.3076457229894366e+01
7.1354277009520928e-01 3.3076457229894366e+01
ITEM: ATOMS id mol type x y z 
27311 317 4 1.54282 13.269 5.77642 
27305 317 4 2.53002 13.1108 5.79855 
27308 317 4 3.51723 12.9527 5.82068 
27316 317 4 4.50443 12.7945 5.84281 
27321 317 4 0.956119 14.1446 5.12442 
27310 317 4 2.15419 13.848 5.23686 
27320 317 4 1.77835 14.5851 4.67518 
27319 317 4 2.802 14.6305 4.52695 
27318 317 4 3.75277 14.2688 4.71944 
27309 317 4 3.14139 13.6898 5.25899 
27317 317 4 4.3759 13.5967 5.20108 
27306 317 4 1.91865 12.5319 6.3381 
27312 317 4 1.30728 11.9529 6.87765 
27313 317 4 2.25804 11.5912 7.07015 
27315 317 4 4.10392 12.0771 6.47268 
27307 317 4 2.90586 12.3737 6.36023 
27314 317 4 3.28169 11.6366 6.92191 
27105 306 4 4.32444 12.0641 17.9347 
27106 306 4 5.24213 12.3314 17.5368 
27099 306 4 5.80183 12.6969 18.5805 
27104 306 4 3.69527 11.9664 18.751 
27103 306 4 3.5232 12.0645 19.7672 
27098 306 4 4.86283 12.3806 18.7157 
27101 306 4 5.93959 13.0136 20.2778 
27096 306 4 5.40121 12.6971 19.4968 
27102 306 4 5.00059 12.6973 20.4131 
27097 306 4 4.4622 12.3808 19.632 
27114 306 4 3.85434 12.3321 20.711 
27113 306 4 4.59997 12.6975 21.3293 
27112 306 4 5.56028 13.0628 21.4567 
27220 312 4 8.03528 1.36436 12.7167 
27276 315 4 8.05583 1.42393 12.7417 
27269 315 4 9.04687 1.33458 12.8414 
27213 312 4 9.17574 0.93666 12.4877 
27212 312 4 9.14163 1.62875 13.2088 
27267 315 4 10.0379 1.24522 12.9411 
27210 312 4 10.0166 1.22034 12.9487 
27215 312 4 10.8916 0.811936 12.6886 
27272 315 4 11.0289 1.15586 13.0408 
27219 312 4 8.26662 2.03715 13.4689 
27277 315 4 8.31133 2.09293 13.4894 
27270 315 4 9.53369 1.89 13.5157 
27218 312 4 8.96687 2.49108 14.0816 
27211 312 4 9.98252 1.91243 13.6698 
27216 312 4 10.8575 1.50402 13.4097 
27271 315 4 10.5247 1.80065 13.6153 
27228 312 4 10.9482 2.34706 14.3136 
27280 315 4 11.0115 2.35607 14.2896 
27278 315 4 9.02947 2.53478 14.0902 
27217 312 4 9.94841 2.60452 14.3908 
27279 315 4 10.0178 2.6311 14.3831 
27145 308 4 7.78658 9.46913 30.9702 
27146 308 4 8.51229 9.26029 30.262 
27147 308 4 9.38172 9.52262 29.7648 
27134 308 4 9.04862 11.0187 31.0498 
27138 308 4 9.21517 10.2707 30.4073 
27137 308 4 8.4176 10.2439 31.01 
27148 308 4 10.1619 10.1858 29.612 
27139 308 4 9.84619 11.0455 30.4471 
27149 308 4 10.6438 11.0722 29.8444 
27144 308 4 7.39902 10.0932 31.6998 
27143 308 4 7.45348 10.9652 32.2552 
27136 308 4 8.25105 10.992 31.6525 
27108 306 4 6.94808 13.0622 18.2826 
27107 306 4 6.20245 12.6968 17.6642 
27100 306 4 6.34021 13.0135 19.3615 
27109 306 4 7.27922 13.3298 19.2263 
27110 306 4 7.10715 13.4279 20.2425 
27111 306 4 6.47798 13.3302 21.0589 
27140 308 4 9.67964 11.7935 31.0895 
27150 308 4 10.6982 11.9443 30.3998 
27151 308 4 10.3107 12.5683 31.1293 
27142 308 4 7.93535 11.8516 32.4876 
27135 308 4 8.88207 11.7668 31.6922 
27141 308 4 8.71552 12.5148 32.3347 
27152 308 4 9.58495 12.7772 31.8375 
27359 319 4 7.18296 22.2317 5.01162 
27360 319 4 7.09541 22.2498 6.04307 
27408 322 4 7.15447 22.2476 5.03539 
27409 322 4 7.09612 22.2594 6.069 
27358 319 4 7.75883 22.3437 4.15856 
27407 322 4 7.70589 22.3653 4.16708 
27418 322 4 8.60262 22.5809 3.69672 
27356 319 4 9.66881 22.8112 3.79287 
27417 322 4 9.6044 22.8368 3.75035 
27357 319 4 8.66872 22.5558 3.71247 
27347 319 4 9.33711 22.7643 4.73513 
27406 322 4 9.29952 22.7838 4.70131 
27348 319 4 8.38212 22.5305 4.91797 
27401 322 4 8.35026 22.5481 4.90967 
27349 319 4 8.05041 22.4836 5.86023 
27402 322 4 8.04538 22.4951 5.86063 
27343 319 4 9.0054 22.7173 5.67739 
27400 322 4 8.99463 22.7309 5.65227 
27416 322 4 10.4428 23.0642 4.31359 
27355 319 4 10.4912 23.0414 4.37823 
27354 319 4 10.9154 23.1848 5.3117 
27415 322 4 10.8931 23.2024 5.23553 
27346 319 4 9.96039 22.9511 5.49454 
27405 322 4 9.94389 22.9666 5.4439 
27410 322 4 7.54648 22.3975 6.99094 
27361 319 4 7.51965 22.3932 6.97654 
27350 319 4 8.34198 22.6234 7.5619 
27411 322 4 8.38487 22.625 7.55419 
27351 319 4 9.34208 22.8788 7.6423 
27412 322 4 9.38664 22.8808 7.60781 
27403 322 4 8.68975 22.6779 6.60323 
27344 319 4 8.67369 22.6704 6.61964 
27345 319 4 9.62868 22.9041 6.4368 
27404 322 4 9.63901 22.9137 6.39486 
27413 322 4 10.2834 23.0965 7.13745 
27352 319 4 10.252 23.0909 7.19621 
27353 319 4 10.8278 23.2029 6.34315 
27414 322 4 10.8348 23.2142 6.26914 
27086 305 4 9.56413 29.2806 7.70078 
27035 302 4 9.52172 29.2741 7.69445 
27034 302 4 9.66281 30.2963 7.61116 
27084 305 4 9.4197 31.2717 7.82392 
27033 302 4 9.3588 31.2635 7.82122 
27085 305 4 9.71646 30.3013 7.61832 
27038 302 4 7.31221 28.2648 9.14359 
27089 305 4 7.32744 28.2949 9.12426 
27090 305 4 6.6611 28.9549 9.56284 
27027 302 4 6.64456 28.9176 9.59072 
27036 302 4 8.97334 28.4706 8.04877 
27087 305 4 9.00351 28.483 8.0492 
27026 302 4 8.08314 29.0958 8.64258 
27080 305 4 8.11261 29.1177 8.63181 
27037 302 4 8.1646 28.1011 8.57919 
27088 305 4 8.18482 28.1222 8.57023 
27081 305 4 7.35075 29.5341 9.12811 
27021 302 4 7.32312 29.5041 9.14835 
27082 305 4 7.27854 30.5296 9.18968 
27022 302 4 7.24166 30.4988 9.21173 
27092 305 4 6.51667 30.9459 9.68599 
27077 305 4 8.0404 30.1133 8.69338 
27020 302 4 8.00168 30.0905 8.70597 
27083 305 4 7.96819 31.1088 8.75495 
27078 305 4 8.73005 30.6925 8.25865 
27024 302 4 8.68024 30.677 8.2636 
27025 302 4 8.7617 29.6823 8.20021 
27079 305 4 8.80226 29.6969 8.19708 
27023 302 4 7.92022 31.0852 8.76936 
27031 302 4 7.83877 32.0799 8.83275 
27094 305 4 7.89597 32.1043 8.81653 
27093 305 4 7.07729 31.7435 9.33756 
27030 302 4 7.03003 31.7105 9.36317 
27032 302 4 8.69116 31.9163 8.26836 
27095 305 4 8.75336 31.9316 8.2625 
27028 302 4 6.34055 29.8847 9.80079 
27029 302 4 6.48164 30.907 9.7175 
27091 305 4 6.36433 29.9252 9.76844 
27285 315 4 10.058 32.2223 11.4992 
27222 312 4 9.08504 32.4565 11.5838 
27221 312 4 8.33484 33.0159 12.0268 
27274 315 4 9.06427 32.4973 11.5926 
27275 315 4 8.33143 33.07 12.0475 
27268 315 4 9.55109 33.0527 12.2669 
27214 312 4 10.0507 32.8912 12.2276 
27224 312 4 11.0664 32.3125 11.8158 
27284 315 4 11.0464 32.3186 11.792 
27273 315 4 10.5421 32.9634 12.3666 
27223 312 4 10.0849 32.1991 11.5066 
27333 318 4 16.0016 4.99761 2.32789 
27332 318 4 16.3015 5.61709 1.55448 
27327 318 4 16.0981 5.97925 3.75173 
27326 318 4 16.2073 5.8741 2.76324 
27334 318 4 15.8119 4.84784 3.33461 
27335 318 4 15.7833 5.20791 4.30487 
27336 318 4 15.9234 5.98134 4.97871 
27282 315 4 12.02 1.06651 13.1405 
27226 312 4 11.998 1.07632 13.1807 
27281 315 4 11.7444 1.78339 13.8348 
27227 312 4 11.6984 1.78771 13.8707 
27303 316 4 15.5854 4.04879 22.1849 
27301 316 4 13.8783 5.08745 22.2714 
27302 316 4 14.6651 4.47875 21.9845 
27304 316 4 16.3925 3.91281 22.8189 
27293 316 4 16.8703 4.10722 23.7165 
27300 316 4 13.4358 5.71182 22.9688 
27291 316 4 14.5208 5.11666 23.0373 
27290 316 4 14.3097 5.66521 23.8464 
27292 316 4 15.3743 4.59734 22.994 
27287 316 4 16.0168 4.62655 23.7598 
27286 316 4 15.1632 5.14588 23.8031 
27289 316 4 14.9522 5.69442 24.6122 
27294 316 4 16.8906 4.57994 24.6374 
27288 316 4 15.8057 5.17509 24.5689 
27296 316 4 15.6614 5.81301 25.6216 
27295 316 4 16.4481 5.2043 25.3347 
27325 318 4 16.5222 6.64545 2.21009 
27331 318 4 16.6313 6.5403 1.2216 
27330 318 4 16.7279 7.52194 2.64544 
27324 318 4 16.413 6.7506 3.19858 
27328 318 4 16.3039 6.85574 4.18707 
27329 318 4 16.6187 7.62709 3.63392 
27339 318 4 16.8244 8.50358 4.06927 
27338 318 4 16.5245 7.8841 4.84268 
27337 318 4 16.1947 6.96089 5.17556 
27299 316 4 13.4562 6.18454 23.8896 
27297 316 4 14.7411 6.24296 25.4213 
27298 316 4 13.9339 6.37895 24.7873 
27017 301 4 12.7303 8.88258 25.8744 
27207 311 4 12.756 8.91064 25.8312 
27208 311 4 13.1782 9.31599 24.9772 
27016 301 4 13.1527 9.28132 25.0174 
27209 311 4 13.6987 10.0792 24.5098 
27015 301 4 13.6797 10.0375 24.5458 
27198 311 4 14.1779 10.9959 24.5543 
27014 301 4 14.17 10.9484 24.5859 
27005 301 4 13.8565 10.7818 25.5208 
27192 311 4 13.8614 10.8238 25.4872 
27006 301 4 13.3478 9.94827 25.7366 
27197 311 4 13.3616 9.98384 25.6986 
27206 311 4 12.5452 8.9718 26.843 
27018 301 4 12.5256 8.9481 26.8872 
27007 301 4 13.0343 9.78166 26.6714 
27196 311 4 13.0451 9.81174 26.6315 
27195 311 4 13.2285 10.4796 27.353 
27002 301 4 13.2294 10.4486 27.3906 
27194 311 4 13.7283 11.3195 27.1415 
27004 301 4 14.0516 11.4488 26.24 
27193 311 4 14.0448 11.4916 26.2086 
27001 301 4 13.5429 10.6152 26.4557 
27191 311 4 13.5449 10.6517 26.4201 
27003 301 4 13.738 11.2822 27.1749 
27205 311 4 12.6023 9.48309 27.7415 
27019 301 4 12.5935 9.46032 27.7843 
27008 301 4 12.9158 10.282 28.3255 
27204 311 4 12.912 10.3075 28.2859 
27203 311 4 13.3912 11.2241 28.3303 
27009 301 4 13.4062 11.193 28.3656 
27013 301 4 14.4923 11.7701 25.1271 
27199 311 4 14.4876 11.8203 25.0986 
27012 301 4 14.5602 12.2823 26.0243 
27200 311 4 14.5447 12.3316 25.9971 
27011 301 4 14.3556 12.3478 27.037 
27201 311 4 14.3339 12.3927 27.0089 
27010 301 4 13.9331 11.9491 27.894 
27202 311 4 13.9117 11.9874 27.8629 
27465 325 4 13.0179 28.1261 10.5187 
27049 303 4 12.9731 28.1335 10.5472 
27466 325 4 12.3137 27.783 11.1956 
27050 303 4 12.2567 27.8085 11.2203 
27464 325 4 13.7868 28.7759 10.2765 
27048 303 4 13.7602 28.7627 10.3095 
27041 303 4 13.4986 29.0158 11.2409 
27458 325 4 13.5229 29.0231 11.2089 
27046 303 4 14.7404 30.2232 11.2616 
27474 325 4 14.7322 30.2632 11.2222 
27047 303 4 14.4071 29.5276 10.571 
27475 325 4 14.4142 29.5581 10.5341 
27043 303 4 12.4853 28.7919 12.6278 
27460 325 4 12.5225 28.774 12.6008 
27051 303 4 11.803 27.8749 12.1485 
27467 325 4 11.8628 27.8385 12.1259 
27468 325 4 11.786 28.2776 13.0603 
27052 303 4 11.7335 28.3148 13.0832 
27459 325 4 12.7864 28.5267 11.6684 
27042 303 4 12.7468 28.5388 11.6963 
27039 303 4 13.237 29.269 12.1724 
27457 325 4 13.2591 29.2704 12.1413 
27044 303 4 12.9754 29.5222 13.1038 
27461 325 4 12.9952 29.5177 13.0737 
27040 303 4 13.9887 29.7461 11.717 
27045 303 4 13.7271 29.9992 12.6484 
27462 325 4 13.7318 30.0141 12.6141 
27473 325 4 14.6554 30.7023 12.1567 
27057 303 4 14.6709 30.6631 12.1962 
27463 325 4 13.9956 29.7668 11.6818 
27056 303 4 14.2172 30.7295 13.1244 
27472 325 4 14.2045 30.7577 13.087 
27283 315 4 11.7645 32.7604 12.3928 
27225 312 4 11.7667 32.7664 12.4285 
27469 325 4 12.1039 28.9827 13.7485 
27053 303 4 12.0669 29.0104 13.7737 
27054 303 4 12.7138 29.7753 14.0352 
27470 325 4 12.7314 29.7649 14.006 
27471 325 4 13.5002 30.4146 13.7639 
27055 303 4 13.5009 30.4045 13.7976 
27262 314 4 17.0193 1.51734 25.0354 
27188 310 4 17.0479 1.56361 25.0472 
27189 310 4 17.0794 0.791729 24.3579 
27261 314 4 17.0609 0.744806 24.3474 
27177 310 4 17.8967 1.14018 25.8448 
27253 314 4 17.8771 1.10881 25.8312 
27187 310 4 17.3818 1.99341 25.9279 
27263 314 4 17.349 1.95395 25.9143 
27186 310 4 17.9916 1.96597 26.7641 
27264 314 4 17.9617 1.93766 26.7487 
27176 310 4 18.5628 0.887787 26.5467 
27254 314 4 18.5492 0.868243 26.5315 
27265 314 4 18.6933 1.47282 27.315 
27185 310 4 18.714 1.48863 27.3317 
27342 318 4 16.9026 7.51985 1.41845 
27341 318 4 17.0427 8.29328 2.09229 
27340 318 4 17.0141 8.65335 3.06255 
27260 314 4 17.4628 32.2063 24.0347 
27190 310 4 17.4679 32.2475 24.0448 
27258 314 4 18.8487 30.9526 24.7473 
27180 310 4 18.8317 30.9708 24.7593 
27181 310 4 19.4415 30.9434 25.5955 
27257 314 4 19.4614 30.9363 25.5817 
27178 310 4 17.7455 32.9023 25.0598 
27179 310 4 18.1093 31.4482 24.1917 
27259 314 4 18.1171 31.4174 24.1811 
27173 310 4 18.2605 32.049 24.9767 
27251 314 4 18.2612 32.022 24.9645 
27248 314 4 18.4052 32.6266 25.748 
27172 310 4 18.4116 32.6499 25.7617 
27252 314 4 17.7331 32.8672 25.0477 
27250 314 4 18.9333 31.7814 25.6649 
27174 310 4 18.9266 31.7966 25.6786 
27255 314 4 19.7495 32.1454 27.1486 
27182 310 4 19.7754 31.3732 26.4762 
27256 314 4 19.7911 31.3729 26.4606 
27175 310 4 19.0778 32.3975 26.4636 
27184 310 4 19.3554 33.0522 27.4786 
27183 310 4 19.7439 32.1451 27.1655 
27249 314 4 19.0773 32.386 26.4483 
27266 314 4 19.3476 33.0469 27.4613 
27373 320 4 22.6374 5.49251 7.84268 
27421 323 4 23.8766 5.53368 7.63454 
27429 323 4 22.6644 5.43854 7.87453 
27366 320 4 24.2965 5.73528 7.40821 
27425 323 4 25.5526 5.111 7.74738 
27367 320 4 25.2578 5.46848 7.47727 
27420 323 4 24.8295 5.69422 7.37708 
27377 320 4 25.9556 5.97806 6.97373 
27437 323 4 25.9654 5.99465 6.98269 
27436 323 4 26.5055 5.27153 7.48993 
27378 320 4 26.4758 5.23924 7.47911 
27371 320 4 23.1645 3.93975 8.98786 
27431 323 4 23.2339 3.90627 9.02698 
27370 320 4 24.0587 3.47401 9.22339 
27432 323 4 24.14 3.46294 9.26034 
27363 320 4 24.8236 4.18253 8.55338 
27423 323 4 24.3698 4.2067 8.63259 
27433 323 4 25.1692 3.41819 9.15729 
27369 320 4 25.0872 3.40615 9.12597 
27380 320 4 25.9744 3.75435 8.7217 
27434 323 4 26.0458 3.78401 8.74544 
27365 320 4 23.5988 5.22571 7.91174 
27364 320 4 23.8623 4.44933 8.48433 
27422 323 4 23.6467 4.78992 8.26229 
27372 320 4 22.6443 4.67857 8.48248 
27430 323 4 22.6938 4.62939 8.51974 
27368 320 4 25.5214 4.69211 8.04985 
27362 320 4 24.5601 4.95891 7.9808 
27419 323 4 24.5997 4.95046 8.00484 
27424 323 4 25.3227 4.36724 8.37514 
27379 320 4 26.4827 4.42531 8.11891 
27435 323 4 26.5349 4.46238 8.13514 
27073 304 4 25.3138 1.58956 14.4941 
27074 304 4 25.7538 2.37198 13.9783 
27075 304 4 26.4111 3.17148 13.952 
27064 304 4 26.4878 2.8036 14.8788 
27076 304 4 27.1095 3.77383 14.4224 
27072 304 4 25.2089 1.03388 15.3613 
27071 304 4 25.4673 0.853814 16.3476 
27063 304 4 25.9392 2.01265 15.1498 
27062 304 4 26.016 1.64477 16.0765 
27058 304 4 26.5646 2.43573 15.8055 
27061 304 4 26.6414 2.06785 16.7322 
27065 304 4 27.6619 4.01764 15.2634 
27060 304 4 27.19 2.85881 16.4612 
27059 304 4 27.1133 3.22668 15.5345 
27069 304 4 26.7182 1.69998 17.659 
27068 304 4 27.3754 2.49947 17.6327 
27070 304 4 26.0198 1.09762 17.1886 
27427 323 4 24.0301 6.48273 6.85239 
27375 320 4 24.033 6.51166 6.83562 
27374 320 4 23.1457 6.16346 7.23989 
27428 323 4 23.1535 6.11691 7.26424 
27376 320 4 25.0614 6.4438 6.7382 
27426 323 4 25.0594 6.43798 6.74933 
27130 307 4 27.5021 10.5476 6.69161 
27247 313 4 27.5369 10.5674 6.73242 
27236 313 4 27.0305 11.4061 6.39771 
27129 307 4 27.0057 11.3898 6.35065 
27238 313 4 27.1616 12.5899 4.79092 
27127 307 4 27.1654 12.5729 4.74593 
27128 307 4 26.8825 12.1311 5.63848 
27237 313 4 26.8931 12.1464 5.68707 
27119 307 4 27.6404 11.5722 5.30188 
27168 309 4 27.3304 19.5061 16.891 
27391 321 4 27.3687 19.4947 16.8767 
27169 309 4 26.6465 19.6407 17.6566 
27392 321 4 26.6772 19.6339 17.6347 
27384 321 4 27.3662 19.0213 18.0221 
27159 309 4 27.1759 18.9175 18.5127 
27170 309 4 26.3309 19.4411 18.6222 
27393 321 4 26.355 19.4448 18.6002 
27158 309 4 27.6756 18.95 17.6471 
27154 309 4 27.521 18.3614 19.2688 
27160 309 4 27.0213 18.3289 20.1344 
27395 321 4 27.0416 18.3588 20.133 
27385 321 4 27.2718 18.6934 18.9621 
27394 321 4 26.4884 18.9781 19.5147 
27171 309 4 26.4681 18.961 19.5292 
27451 324 4 26.79 19.0258 23.8266 
27450 324 4 27.1887 19.1782 22.8834 
27442 324 4 27.2387 19.9181 23.8764 
27443 324 4 27.2218 20.4393 24.7297 
27452 324 4 26.6317 19.3515 24.7965 
27453 324 4 26.7562 20.0682 25.5332 
27455 324 4 27.6536 21.8529 25.6328 
27454 324 4 27.1303 20.9838 25.8393 
27444 324 4 27.6705 21.3317 24.7795 
27066 304 4 27.9203 3.83758 16.2497 
27067 304 4 27.8155 3.28189 17.1169 
27117 307 4 28.8465 11.2463 4.10212 
27233 313 4 29.0965 10.8552 4.29324 
27124 307 4 29.2946 11.4791 3.23896 
27243 313 4 29.9226 9.93136 4.30239 
27242 313 4 29.7852 10.6716 3.59175 
27123 307 4 29.791 10.637 3.57992 
27122 307 4 29.9142 9.89571 4.29208 
27245 313 4 29.0516 9.45991 6.04008 
27132 307 4 29.018 9.42996 6.01841 
27133 307 4 29.6313 9.45391 5.18463 
27244 313 4 29.6541 9.48783 5.19854 
27116 307 4 29.1563 10.4546 4.62868 
27234 313 4 29.031 10.2633 5.09663 
27115 307 4 28.3983 11.0134 4.96528 
27121 307 4 28.7082 10.2217 5.49185 
27235 313 4 28.3423 10.447 5.79812 
27120 307 4 27.9502 10.7805 5.82845 
27229 313 4 28.4078 11.0389 4.99473 
27230 313 4 27.7192 11.2225 5.69622 
27131 307 4 28.2387 9.83029 6.57 
27246 313 4 28.2767 9.85506 6.60152 
27125 307 4 28.558 12.1965 3.36057 
27239 313 4 27.764 12.6178 3.94938 
27240 313 4 28.539 12.2227 3.38794 
27232 313 4 28.4734 11.6308 4.19134 
27126 307 4 27.7787 12.5968 3.91216 
27241 313 4 29.2788 11.5103 3.25704 
27118 307 4 28.0885 11.8051 4.43872 
27231 313 4 27.7847 11.8144 4.89282 
27322 317 4 32.9185 13.4272 5.75429 
27323 317 4 33.0471 12.625 6.39602 
27166 309 4 29.0202 18.4588 16.6719 
27389 321 4 29.0688 18.4586 16.6861 
27167 309 4 28.1992 19.0735 16.5306 
27390 321 4 28.244 19.0646 16.5295 
27156 309 4 28.8657 17.8702 18.2936 
27382 321 4 28.8386 18.124 17.857 
27381 321 4 28.0552 18.4087 18.4095 
27153 309 4 28.0208 18.3938 18.4031 
27157 309 4 28.5205 18.4263 17.5375 
27165 309 4 29.5734 17.8267 17.2771 
27388 321 4 29.622 17.8393 17.3044 
27164 309 4 29.7106 17.3466 18.184 
27399 321 4 29.7553 17.3726 18.2189 
27383 321 4 28.1496 18.7366 17.4695 
27387 321 4 28.7441 17.7961 18.797 
27396 321 4 27.8663 17.7528 20.2896 
27155 309 4 28.366 17.8377 19.1592 
27386 321 4 27.9608 18.0808 19.3496 
27162 309 4 28.7111 17.2816 19.9153 
27397 321 4 28.7417 17.3226 19.9424 
27161 309 4 27.8423 17.7142 20.2757 
27163 309 4 29.395 17.147 19.1497 
27398 321 4 29.4331 17.1835 19.1844 
27449 324 4 27.7211 19.768 22.2196 
27448 324 4 28.2444 20.6371 22.0131 
27441 324 4 27.7042 20.2892 23.0729 
27440 324 4 28.1529 21.1816 23.1227 
27438 324 4 27.6873 20.8105 23.9262 
27447 324 4 28.6184 21.5527 22.3192 
27439 324 4 28.136 21.7028 23.976 
27446 324 4 28.743 22.2694 23.0559 
27445 324 4 28.5847 22.5952 24.0258 
27456 324 4 28.1859 22.4427 24.969 
ITEM: TIMESTEP
50000
ITEM: NUMBER OF ATOMS
475
ITEM: BOX BOUNDS pp pp pp
7.1354277009520928e-01 3.3076457229894366e+01
7.1354277009520928e-01 3.3076457229894366e+01
7.1354277009520928e-01 3.3076457229894366e+01
ITEM: ATOMS id mol type x y z 
27315 317 4 2.99674 14.0607 5.70967 
27307 317 4 1.8099 13.8046 5.9583 
27318 317 4 1.33533 14.6651 3.50171 
27305 317 4 1.03564 13.9321 5.33836 
27309 317 4 1.18549 14.2986 4.42003 
27308 317 4 1.95974 14.1711 5.03998 
27317 317 4 2.27573 14.6312 3.93343 
27316 317 4 2.88385 14.41 4.7416 
27313 317 4 1.75666 13.3617 7.1146 
27306 317 4 0.885803 13.5656 6.25668 
27314 317 4 2.58416 13.677 6.57825 
27312 317 4 0.735962 13.1992 7.175 
27107 306 4 3.88114 12.0723 18.6843 
27108 306 4 4.83911 12.2901 18.3576 
27106 306 4 3.17488 12.0517 19.441 
27105 306 4 2.90956 12.234 20.4251 
27098 306 4 3.86503 12.5213 20.3571 
27099 306 4 4.35082 12.4404 19.4868 
27100 306 4 5.30629 12.7277 19.4188 
27096 306 4 4.8205 12.8086 20.2892 
27109 306 4 5.79208 12.6469 18.5485 
27103 306 4 3.84891 12.9703 22.03 
27104 306 4 3.15627 12.5702 21.3727 
27097 306 4 4.3347 12.8894 21.1596 
27101 306 4 5.77597 13.0959 20.2213 
27102 306 4 5.29017 13.1768 21.0917 
27113 306 4 5.75985 13.5449 21.8941 
27114 306 4 4.80189 13.3271 22.2208 
27030 302 4 5.85737 32.5301 10.5228 
27037 302 4 5.90028 28.8889 9.23105 
27093 305 4 5.8796 32.5726 10.4655 
27029 302 4 5.29608 31.8041 11.0022 
27089 305 4 5.33866 29.1767 10.0452 
27038 302 4 5.3275 29.1386 10.0566 
27080 305 4 6.07221 29.8929 9.34879 
27081 305 4 5.61401 30.3843 10.0895 
27021 302 4 5.59818 30.3465 10.1166 
27022 302 4 5.75114 31.3256 10.2512 
27090 305 4 4.99966 29.8954 10.7089 
27027 302 4 4.99017 29.846 10.733 
27028 302 4 4.97867 30.8217 11.0791 
27091 305 4 4.9899 30.8761 11.0406 
27082 305 4 5.77017 31.3646 10.2108 
27088 305 4 5.91605 28.9126 9.22746 
27026 302 4 6.05324 29.8679 9.36565 
27092 305 4 5.31198 31.856 10.9516 
27220 312 4 7.5733 2.19696 12.9702 
27276 315 4 7.55604 2.16595 12.9626 
27221 312 4 7.97845 1.54904 12.2716 
27275 315 4 7.96232 1.52502 12.2583 
27213 312 4 8.69763 1.67574 12.9549 
27268 315 4 9.07934 1.36412 12.7706 
27274 315 4 8.75485 0.95152 11.9193 
27222 312 4 8.76901 0.969013 11.9392 
27214 312 4 9.57498 1.20737 12.8501 
27273 315 4 10.0032 1.1695 13.1001 
27225 312 4 11.1715 0.865711 13.4285 
27283 315 4 11.1628 0.85083 13.4 
27269 315 4 8.47994 1.97133 13.2922 
27267 315 4 9.40383 1.77671 13.6218 
27212 312 4 8.53947 2.2708 13.7429 
27210 312 4 9.41681 1.80244 13.6381 
27211 312 4 9.25865 2.39751 14.4261 
27270 315 4 8.80442 2.38393 14.1434 
27282 315 4 11.2516 1.38747 14.2809 
27215 312 4 10.2942 1.33408 13.5333 
27226 312 4 11.2603 1.40792 14.306 
27271 315 4 9.72831 2.18931 14.473 
27272 315 4 10.3277 1.58209 13.9514 
27216 312 4 10.136 1.92914 14.3213 
27227 312 4 10.8552 2.05584 15.0046 
27281 315 4 10.8453 2.02841 14.9852 
27219 312 4 7.66212 2.73917 13.8476 
27277 315 4 7.64488 2.70259 13.8435 
27278 315 4 8.20502 2.99114 14.665 
27218 312 4 8.22111 3.03039 14.669 
27217 312 4 9.10048 2.99257 15.2141 
27279 315 4 9.08638 2.95429 15.207 
27228 312 4 10.0646 2.63587 15.3369 
27280 315 4 10.0528 2.6019 15.3242 
27147 308 4 7.89922 9.57779 1.15521 
27146 308 4 8.05854 9.87036 2.13546 
27138 308 4 8.40914 10.4356 1.08968 
27134 308 4 8.91907 11.2933 1.02416 
27137 308 4 8.68375 10.9188 1.92105 
27145 308 4 8.44844 10.5442 2.81795 
27144 308 4 8.96445 11.4188 3.01979 
27148 308 4 8.01316 9.74489 32.5028 
27150 308 4 8.87369 11.1679 31.3914 
27149 308 4 8.36984 10.3269 31.7243 
27139 308 4 8.64445 10.8101 32.5557 
27136 308 4 9.19368 11.7765 1.85553 
27142 308 4 9.82497 12.8418 1.90848 
27135 308 4 9.42899 12.1511 0.958635 
27141 308 4 9.93892 13.0089 0.893111 
27143 308 4 9.46829 12.2597 2.6869 
27110 306 4 6.48472 13.047 19.2058 
27112 306 4 6.46611 13.5655 21.1374 
27111 306 4 6.73144 13.3832 20.1534 
27151 308 4 9.38969 12.0424 31.5933 
27140 308 4 9.15438 11.6679 32.4902 
27152 308 4 9.77959 12.7163 32.2758 
27408 322 4 8.22377 22.8004 5.33312 
27359 319 4 8.2196 22.8183 5.37509 
27407 322 4 8.91438 23.0848 4.61615 
27358 319 4 8.91783 23.0824 4.65772 
27401 322 4 9.33313 23.33 5.49056 
27348 319 4 9.33701 23.3313 5.5309 
27418 322 4 9.8294 23.5006 4.36778 
27357 319 4 9.84069 23.4799 4.40829 
27347 319 4 10.2486 23.7422 5.54885 
27406 322 4 10.2378 23.7559 5.50976 
27356 319 4 10.7409 23.9042 4.69363 
27417 322 4 10.7237 23.9365 4.65455 
27416 322 4 11.3575 24.2755 5.39962 
27355 319 4 11.3773 24.2417 5.43728 
27361 319 4 8.1351 22.9185 7.37087 
27410 322 4 8.14626 22.875 7.33031 
27349 319 4 8.84465 23.1692 6.38612 
27402 322 4 8.84725 23.1494 6.34577 
27344 319 4 9.26383 23.4181 7.25929 
27403 322 4 9.26601 23.3946 7.22017 
27409 322 4 7.94261 22.7236 6.32657 
27360 319 4 7.9331 22.7583 6.36817 
27343 319 4 9.75619 23.5801 6.40407 
27400 322 4 9.75189 23.5753 6.36497 
27345 319 4 10.1754 23.829 7.27725 
27404 322 4 10.1706 23.8205 7.23937 
27346 319 4 10.6677 23.991 6.42203 
27405 322 4 10.6565 24.0011 6.38416 
27353 319 4 11.2928 24.342 7.43306 
27414 322 4 11.28 24.3501 7.39681 
27411 322 4 8.78013 23.214 8.07538 
27350 319 4 8.77146 23.256 8.11451 
27351 319 4 9.67169 23.6804 8.39985 
27412 322 4 9.67438 23.6499 8.36215 
27413 322 4 10.5894 24.0657 8.11378 
27352 319 4 10.5946 24.0779 8.15042 
27085 305 4 7.46683 30.8703 7.89961 
27036 302 4 6.55504 29.1638 8.47768 
27087 305 4 6.57712 29.1738 8.47471 
27035 302 4 7.11632 29.8898 7.99831 
27086 305 4 7.14475 29.8904 7.98868 
27034 302 4 7.43373 30.8723 7.92138 
27079 305 4 6.68656 30.3818 8.7294 
27025 302 4 6.66126 30.3684 8.74928 
27077 305 4 6.22836 30.8732 9.47012 
27020 302 4 6.2062 30.847 9.50026 
27078 305 4 6.84271 31.3621 8.85074 
27024 302 4 6.81422 31.3475 8.88389 
27023 302 4 6.35916 31.826 9.63486 
27083 305 4 6.38452 31.8535 9.59146 
27095 305 4 7.11807 32.5697 8.89502 
27032 302 4 7.0849 32.5554 8.94396 
27084 305 4 7.45706 31.851 8.23135 
27033 302 4 7.42223 31.848 8.26751 
27466 325 4 11.3398 28.5597 11.4951 
27031 302 4 6.51212 32.8051 9.76946 
27094 305 4 6.54068 32.8338 9.71279 
27052 303 4 10.7355 28.8325 13.4701 
27468 325 4 10.7473 28.8149 13.3883 
27051 303 4 10.7699 28.5263 12.4816 
27467 325 4 10.8301 28.532 12.3959 
27050 303 4 11.2401 28.525 11.5592 
27223 312 4 9.73314 32.9752 12.0621 
27285 315 4 9.72127 32.962 12.0366 
27284 315 4 10.6026 32.9252 12.5785 
27224 312 4 10.6125 32.9374 12.6072 
27053 303 4 11.1462 29.3614 14.2596 
27469 325 4 11.1136 29.3326 14.2066 
27304 316 4 14.7694 2.70682 23.2433 
27303 316 4 13.7777 2.6582 23.5368 
27293 316 4 15.7435 3.00872 23.4218 
27294 316 4 16.439 3.483 24.0245 
27297 316 4 15.63 4.64591 26.4727 
27298 316 4 14.6383 4.59728 26.7662 
27187 310 4 16.4082 1.22196 25.8023 
27263 314 4 16.423 1.19274 25.7994 
27302 316 4 13.0342 2.87588 24.2236 
27301 316 4 12.7381 3.30153 25.1197 
27292 316 4 14.2408 3.15513 24.2708 
27291 316 4 13.721 3.47679 25.0622 
27286 316 4 14.7039 3.65205 25.0047 
27290 316 4 14.184 3.97372 25.7962 
27287 316 4 15.2237 3.33039 24.2133 
27289 316 4 15.1669 4.14898 25.7387 
27288 316 4 15.6867 3.82732 24.9473 
27295 316 4 16.6696 4.00258 24.8898 
27296 316 4 16.3735 4.42823 25.7859 
27300 316 4 12.9687 3.82111 25.985 
27299 316 4 13.6642 4.29538 26.5877 
27334 318 4 14.2651 6.29748 3.43287 
27335 318 4 13.5646 6.58194 4.14023 
27333 318 4 15.2454 6.27414 3.10062 
27326 318 4 15.2774 6.77305 3.96672 
27332 318 4 16.2428 6.51817 3.23251 
27325 318 4 16.1498 7.11807 4.31302 
27336 318 4 13.3317 7.05128 5.03318 
27328 318 4 14.4691 7.42586 5.35264 
27327 318 4 14.4371 6.92695 4.48653 
27324 318 4 15.3095 7.27196 4.83283 
27337 318 4 13.6288 7.57975 5.87245 
27330 318 4 16.1819 7.61698 5.17913 
27329 318 4 15.3416 7.77087 5.69894 
27340 318 4 16.3539 8.24644 6.2328 
27338 318 4 14.3762 8.02576 6.43315 
27339 318 4 15.3736 8.26978 6.56505 
27208 311 4 12.7222 9.17203 24.9191 
27016 301 4 12.7198 9.18045 24.9076 
27015 301 4 13.0363 10.0589 24.4603 
27209 311 4 13.0393 10.0399 24.452 
27005 301 4 13.4975 10.6257 25.4612 
27006 301 4 13.117 9.72032 25.6497 
27197 311 4 13.1162 9.72992 25.6496 
27198 311 4 13.4827 10.9742 24.5016 
27014 301 4 13.4808 10.9912 24.5305 
27192 311 4 13.4964 10.631 25.4408 
27017 301 4 12.6161 8.59134 25.7526 
27207 311 4 12.6161 8.60315 25.7776 
27018 301 4 12.7531 8.4494 26.7689 
27206 311 4 12.7496 8.48567 26.7975 
27007 301 4 13.1336 9.3548 26.5804 
27196 311 4 13.1299 9.38674 26.5888 
27195 311 4 13.5239 9.94463 27.3193 
27191 311 4 13.5101 10.2878 26.3801 
27002 301 4 13.5308 9.89468 27.3226 
27001 301 4 13.5142 10.2602 26.3919 
27004 301 4 13.8947 11.1656 26.2034 
27193 311 4 13.8904 11.1889 26.1713 
27194 311 4 13.9041 10.8457 27.1105 
27003 301 4 13.9114 10.8001 27.1341 
27019 301 4 13.094 8.79266 27.6843 
27205 311 4 13.0869 8.85108 27.7056 
27008 301 4 13.5475 9.52915 28.2533 
27204 311 4 13.5376 9.60146 28.2585 
27203 311 4 13.9809 10.5357 28.3081 
27009 301 4 13.992 10.4615 28.3236 
27010 301 4 14.3085 11.3399 27.8763 
27202 311 4 14.2981 11.4036 27.841 
27013 301 4 13.9343 11.7277 25.0996 
27199 311 4 13.9334 11.7245 25.0545 
27200 311 4 14.2706 12.0899 25.9626 
27012 301 4 14.2752 12.071 26.0149 
27201 311 4 14.4042 11.9725 26.9825 
27011 301 4 14.4122 11.9291 27.0313 
27354 319 4 11.5793 24.4019 6.43998 
27415 322 4 11.5612 24.4269 6.40336 
27465 325 4 12.1399 28.8907 10.9275 
27049 303 4 12.0201 28.8289 10.95 
27048 303 4 12.9009 29.3565 10.8172 
27475 325 4 13.7333 30.0501 11.2699 
27047 303 4 13.6465 29.9665 11.1964 
27464 325 4 13.016 29.4362 10.8451 
27042 303 4 11.8182 29.0945 12.1436 
27459 325 4 11.8816 29.1256 12.1167 
27457 325 4 12.4234 29.6914 12.7383 
27039 303 4 12.3964 29.664 12.728 
27041 303 4 12.6486 29.5102 11.7726 
27458 325 4 12.7197 29.5638 11.7917 
27040 303 4 13.2268 30.0797 12.357 
27463 325 4 13.2615 30.1297 12.4133 
27046 303 4 14.0572 30.4955 11.986 
27474 325 4 14.0996 30.5679 12.0882 
27473 325 4 14.0168 30.8508 13.0807 
27057 303 4 14.0228 30.8016 12.9744 
27045 303 4 12.9745 30.2335 13.3124 
27462 325 4 12.9653 30.2572 13.3599 
27044 303 4 12.1441 29.8177 13.6834 
27461 325 4 12.1272 29.819 13.6849 
27470 325 4 11.8309 29.9465 14.6315 
27054 303 4 11.8918 29.9715 14.6388 
27471 325 4 12.707 30.4921 14.549 
27055 303 4 12.7726 30.4991 14.506 
27472 325 4 13.5071 30.8231 13.9814 
27056 303 4 13.5526 30.803 13.8968 
27043 303 4 11.5659 29.2482 13.099 
27460 325 4 11.5854 29.2531 13.0633 
27177 310 4 16.8917 32.8245 26.2361 
27260 314 4 16.5305 30.7582 25.395 
27190 310 4 16.5574 30.7955 25.3575 
27178 310 4 16.7794 31.895 25.8847 
27261 314 4 16.1704 31.6902 25.1237 
27189 310 4 16.1835 31.7259 25.0996 
27262 314 4 16.131 32.7141 25.2717 
27188 310 4 16.1288 32.7468 25.2624 
27252 314 4 16.769 31.8618 25.9062 
27253 314 4 16.8954 32.7945 26.244 
27374 320 4 22.2208 5.47481 8.08563 
27430 323 4 21.6476 4.04936 9.35661 
27372 320 4 21.6509 4.02772 9.34321 
27371 320 4 22.1381 3.27948 9.86729 
27431 323 4 22.1427 3.30471 9.87838 
27429 323 4 21.6688 4.8526 8.70374 
27373 320 4 21.6812 4.83127 8.69107 
27428 323 4 22.2007 5.49921 8.09471 
27264 314 4 16.9682 1.62636 26.5654 
27186 310 4 16.9466 1.65253 26.5747 
27265 314 4 17.6204 1.5359 27.3644 
27185 310 4 17.5999 1.56023 27.3726 
27266 314 4 18.2048 0.945596 27.9823 
27184 310 4 18.193 0.969822 27.9821 
27342 318 4 17.2872 7.49265 4.63248 
27341 318 4 17.0543 7.96199 5.52543 
27331 318 4 16.9902 6.96417 3.79321 
27249 314 4 17.9663 32.205 27.4711 
27254 314 4 17.494 32.9661 27.0265 
27181 310 4 18.3423 30.5434 27.5372 
27259 314 4 17.115 30.1679 26.0129 
27258 314 4 17.7672 30.0775 26.8119 
27180 310 4 17.8038 30.1128 26.7649 
27179 310 4 17.1505 30.2051 25.967 
27251 314 4 17.2413 31.1007 26.3507 
27173 310 4 17.2629 31.1346 26.3184 
27248 314 4 17.3677 32.0334 26.6886 
27175 310 4 17.9711 32.2333 27.4549 
27172 310 4 17.3752 32.0641 26.6698 
27250 314 4 17.84 31.2722 27.1332 
27174 310 4 17.8588 31.3038 27.1035 
27176 310 4 17.4876 32.9936 27.0212 
27257 314 4 18.3123 30.5111 27.5778 
27256 314 4 18.6043 31.3526 28.1055 
27182 310 4 18.6216 31.3814 28.0772 
27183 310 4 18.567 32.4024 28.24 
27255 314 4 18.565 32.3765 28.2535 
27427 323 4 23.1006 5.81592 7.69269 
27375 320 4 23.1252 5.78591 7.6891 
27376 320 4 24.152 5.6812 7.60773 
27426 323 4 24.1276 5.71787 7.60542 
27377 320 4 25.026 5.18875 7.86333 