9000
Atoms. Timestep: 0
N 1.163550 1.676250 2.346090
N 1.220450 1.107710 1.581710
N 2.122380 0.753380 1.599860
N 0.938819 2.514070 2.759740
N 4.579190 2.163200 5.281220
N 5.261420 2.270230 5.983070
N 4.852240 3.124260 5.290430
N 4.413180 3.776300 5.872200
N 2.397010 5.367000 4.561650
N 2.465310 5.936850 5.378410
N 5.963330 1.070490 7.121650
N 5.297780 1.465210 6.525290
N 4.373050 4.052770 6.794690
N 2.371400 5.466550 7.262070
N 4.054020 4.781360 6.199830
N 2.523130 5.742960 6.332230
N 4.553210 5.581960 6.290260
N 4.299490 1.290920 8.409180
N 4.946390 1.899270 8.671470
N 5.859770 2.093990 8.703680
N 6.020010 2.312090 9.608280
N 1.943930 5.110520 8.032070
N 5.794590 1.881380 10.459800
N 5.692990 3.549980 11.325100
N 5.539590 2.726290 10.912200
N 5.835110 2.950070 12.878200
N 5.588340 2.762600 11.950100
N 2.244830 6.221650 4.227560
N 3.097530 6.981290 3.966310
N 4.029140 7.042060 3.891030
N 2.325560 7.090350 4.431270
N 4.277630 6.518460 6.031530
N 4.893830 6.901160 4.372870
N 4.397730 6.542640 5.107360
N 3.914590 26.981600 2.212270
N 4.013970 27.667400 3.821900
N 4.326850 27.285300 2.994000
N 3.531730 26.883200 5.646390
N 3.468120 26.450600 4.785790
N 4.090270 27.657900 5.798290
N 5.578210 27.445500 7.425450
N 4.987280 27.211300 8.087530
N 5.553190 27.403600 8.774900
N 3.765070 28.694400 1.601820
N 3.539540 27.807600 1.828230
N 2.969750 30.396600 0.777395
N 1.513700 32.348800 1.494430
N 1.408500 31.376500 1.318760
N 5.681260 28.553700 3.758590
N 4.803380 28.180600 3.683330
N 4.962960 27.870600 6.046640
N 5.769230 28.180300 5.559400
N 3.927660 29.698400 6.058410
N 2.076480 31.152400 7.701060
N 2.804800 31.110700 6.284550
N 2.982250 30.821200 7.177460
N 3.544130 30.550200 6.128620
N 4.534600 29.678700 7.406810
N 4.661330 29.983700 6.531140
N 5.565930 30.677800 7.295210
N 5.659180 31.270500 6.517620
N 2.631920 31.711200 7.073060
N 5.978980 27.952100 9.408500
N 5.602500 29.170300 9.258460
N 4.334060 28.975200 8.009580
N 4.959950 29.411300 8.615270
N 5.984220 29.041500 8.064650
N 5.453410 31.183900 8.379940
N 5.641000 30.223200 9.105960
N 4.735940 30.274000 9.350990
N 5.818530 30.043200 7.972440
N 5.385850 31.213800 9.417040
N 4.808000 32.893600 8.834520
N 5.072850 32.048700 8.581580
N 5.827370 32.554200 9.263560
N 5.996820 32.465600 8.168040
N 5.216270 28.909800 10.082500
N 5.961560 27.830600 11.195600
N 5.343190 28.910700 11.392400
N 5.989970 29.432300 10.837900
N 5.050950 28.122500 10.914400
N 5.392700 30.567200 10.115800
N 4.520260 29.594600 9.952890
N 6.097220 31.165400 10.649100
N 5.961450 31.821200 9.838790
N 6.033050 32.195300 11.121100
N 5.124640 31.376800 10.499900
N 4.394450 31.485500 11.086300
N 5.928760 32.739800 10.347200
N 4.293170 30.722000 13.108600
N 5.871810 29.517200 12.895700
N 4.993840 30.548700 12.551400
N 4.969560 29.853500 13.222600
N 4.100440 29.060700 15.013600
N 4.068660 29.735400 14.262500
N 3.732300 30.033100 13.398800
N 5.682620 29.742200 13.822800
N 6.067190 30.290100 17.412300
N 3.756820 28.462900 32.995500
N 4.145410 28.893700 32.232100
N 1.237190 30.721900 32.986000
N 2.066900 30.375600 32.784100
N 3.483710 30.308700 32.413500
N 4.257060 29.796500 32.368200
N 6.450060 1.542220 7.868450
N 9.002510 0.820171 7.619860
N 7.078510 0.874658 8.186710
N 6.363730 0.862584 8.913460
N 9.465350 1.267180 8.321240
N 9.734210 1.225300 9.267800
N 7.595430 5.707560 9.404490
N 6.570620 4.431780 8.849290
N 7.246320 5.133080 8.668880
N 7.652900 0.803354 11.214800
N 7.636090 2.182560 10.857400
N 9.501920 2.056090 11.016600
N 8.437430 1.605790 10.857100
N 9.440830 1.704420 10.161900
N 8.622050 2.486890 10.658700
N 9.192720 1.182880 11.454400
N 10.202400 1.160690 10.323200
N 10.171000 1.094560 11.462100
N 7.547630 3.376630 11.041700
N 7.398260 4.126110 10.388800
N 7.938920 3.062460 10.217800
N 7.549160 4.872970 9.817570
N 6.713820 1.379810 11.771100
N 7.179780 0.871164 13.205300
N 6.998900 1.796190 12.587000
N 7.740620 1.573950 11.735000
N 7.344120 0.809900 12.251700
N 9.660030 1.780160 12.171700
N 8.630770 1.731930 11.963500
N 9.067050 2.462090 12.628800
N 10.605600 1.756690 12.089200
N 10.186500 2.271770 12.775200
N 11.208000 2.331600 12.970400
N 11.138800 0.916782 11.595800
N 7.437030 2.534910 11.718800
N 7.684310 3.074010 13.071900
N 6.690740 2.979110 12.544600
N 8.154040 2.534330 12.374200
N 8.372440 3.876960 12.563100
N 9.485600 3.307230 12.533400
N 8.602040 3.242800 13.273500
N 9.253430 2.723380 11.588200
N 10.204100 2.692070 11.687600
N 10.139000 3.715630 13.031800
N 10.845900 3.134220 12.274000
N 9.228340 4.335300 12.373900
N 7.203690 2.338290 13.383100
N 7.402960 2.256100 14.385200
N 7.704150 1.386790 14.079800
N 8.421380 0.855795 13.560700
N 8.888190 1.423650 14.159000
N 8.268570 1.896720 14.679700
N 8.131730 0.753248 14.632900
N 9.202990 2.073750 15.053000
N 9.418910 0.726195 13.600900
N 9.396780 0.764981 14.749500
N 9.882700 1.544420 14.568300
N 10.911700 1.319730 14.500300
N 10.354500 0.803504 13.911600
N 7.942120 2.957480 14.104500
N 9.177820 4.177080 13.308300
N 9.437340 3.618870 14.048100
N 9.623220 2.932340 13.419400
N 9.096340 3.128990 15.076800
N 8.528740 3.598300 14.427300
N 10.593300 2.955130 13.450500
N 10.774600 3.529530 14.182400
N 10.077800 3.516780 14.820200
N 8.837450 1.309560 15.429800
N 9.697850 1.462000 15.783200
N 9.145030 2.255140 16.052400
N 8.173180 2.169660 15.930200
N 10.327000 1.444860 16.787100
N 11.213800 2.118880 16.179200
N 10.930300 1.199230 15.928700
N 11.353700 2.023130 15.157400
N 10.438500 2.015630 15.142000
N 8.140280 2.736670 15.133800
N 9.812950 2.738170 15.455900
N 10.816300 2.998930 15.128500
N 9.412650 2.258830 16.980400
N 10.244300 2.106470 17.490000
N 9.792060 0.943662 17.420400
N 9.738820 27.273900 4.274120
N 8.737220 25.473800 6.090820
N 9.531670 25.897900 5.760850
N 8.339630 25.638300 6.940620
N 8.971880 25.179500 7.477530
N 7.483610 27.084100 7.469620
N 6.737330 27.446600 7.002470
N 6.410800 27.547500 7.884570
N 8.228490 27.623200 7.662320
N 9.674900 27.645600 6.331950
N 9.336950 27.654500 7.381810
N 9.720780 26.706200 6.189880
N 8.846090 25.790600 8.226290
N 10.137900 24.182000 9.634430
N 10.932100 24.678400 9.557630
N 6.758670 27.409200 8.765090
N 7.741900 27.267600 8.811280
N 8.908150 27.392300 8.429360
N 9.410370 27.105500 9.414130
N 8.995580 26.451400 8.867000
N 8.443620 27.431700 9.376650
N 9.841990 27.466200 8.310430
N 10.837400 26.480900 8.851320
N 10.500100 27.383500 9.009420
N 9.802230 22.303600 10.281000
N 10.661300 23.260000 10.994600
N 10.797500 23.780400 10.203800
N 9.734100 22.510100 11.286500
N 10.817400 22.459700 10.521100
N 10.863500 25.383200 11.208300
N 11.299200 25.684600 9.784370
N 11.465100 24.817400 10.318600
N 6.417910 27.311700 10.555200
N 7.427550 27.397800 10.961300
N 7.323560 27.220300 9.783290
N 9.526250 22.789100 12.180300
N 8.722730 25.728900 12.974100
N 10.463300 25.557800 12.030500
N 11.319700 25.654100 12.541600
N 9.065210 27.481400 12.295900
N 9.767880 27.361100 11.703500
N 10.757200 26.212100 12.972700
N 11.027100 27.554200 12.804600
N 11.286100 26.163800 11.581900
N 11.395600 27.099000 11.547700
N 11.407700 26.698800 12.478800
N 9.312770 25.600200 15.035000
N 8.997000 25.358100 13.799400
N 8.978220 26.209800 14.270100
N 10.576100 27.133800 13.509800
N 10.618400 25.746100 16.227900
N 7.816610 27.161300 16.216500
N 8.103590 26.467100 15.623400
N 9.013230 26.475200 15.270300
N 11.085200 26.445700 15.725800
N 9.657720 28.776300 4.272440
N 10.618200 27.888400 3.043850
N 11.134800 28.235700 3.808620
N 10.362200 28.153800 4.299010
N 9.708650 27.793400 3.467540
N 7.076790 28.454100 4.457330
N 6.174610 29.071600 5.567960
N 6.214690 28.921500 4.484060
N 6.744070 28.140600 5.295660
N 8.318180 29.222700 6.074310
N 10.127200 28.999100 5.116370
N 10.073600 29.401400 5.988380
N 9.546210 30.423100 5.886750
N 6.800820 28.642300 7.348540
N 6.755750 29.261900 6.319850
N 7.649650 28.037300 7.068860
N 7.625600 28.991900 6.720180
N 6.927730 28.085900 6.337750
N 8.094610 28.700700 7.668520
N 8.667310 28.280700 6.956460
N 8.658910 29.250900 7.117350
N 9.577030 28.616400 6.767370
N 9.950910 28.305800 7.653060
N 10.546600 28.972300 7.229140
N 6.955810 29.599700 7.273480
N 7.735430 30.511800 6.915620
N 6.664810 30.623800 7.594030
N 7.871140 29.681600 7.722240
N 7.756650 30.704300 7.812730
N 8.671290 30.106900 6.199720
N 8.574220 30.251100 7.200010
N 9.289010 30.737800 6.794790
N 9.560110 29.651000 6.786590
N 8.402920 31.270900 7.408130
N 10.506300 29.631000 7.869330
N 10.471700 29.954500 6.855830
N 10.260400 30.888400 6.821240
N 6.250090 31.637400 7.781050
N 6.839030 31.349900 7.033080
N 7.766770 31.977100 6.675100
N 7.167140 32.356700 7.330450
N 7.684440 31.683900 7.887160
N 8.580470 32.343900 7.239190
N 9.479560 31.771000 6.922680
N 9.546930 32.401000 7.691500
N 7.966310 32.955400 6.673220
N 11.210400 31.319100 7.283740
N 10.342300 31.780100 7.544930
N 9.829000 31.412300 6.108820
N 7.303070 28.130300 8.015310
N 7.120840 29.073300 8.249980
N 6.350140 28.391500 8.657920
N 9.233530 28.109700 9.025060
N 9.103010 29.037900 8.937510
N 11.229500 29.018000 8.025930
N 9.955000 28.823100 8.579660
N 6.363450 30.660700 8.703050
N 6.432270 29.556800 8.753020
N 7.085080 30.056800 8.280030
N 9.079510 30.210600 9.120520
N 8.955580 31.209500 9.114800
N 8.238190 30.600500 9.580740
N 9.744970 29.721600 8.630150
N 9.762760 30.718400 8.589160
N 9.821770 30.737700 9.532690
N 10.477900 30.763500 8.052840
N 10.701300 30.044100 8.889550
N 11.358900 30.425300 8.112290
N 9.783160 29.650500 9.613760
N 6.970830 31.307400 8.385680
N 6.870620 32.245700 8.487420
N 7.368730 32.986900 9.236190
N 6.127020 31.639200 8.856810
N 8.036140 32.647400 8.017890
N 9.545090 32.539100 8.761740
N 8.221110 32.843300 9.657770
N 8.773730 32.135000 9.309030
N 8.640700 32.922200 8.689650
N 10.078000 31.744500 8.507680
N 11.246900 32.367100 8.656060
N 9.716770 31.759400 9.399510
N 10.390600 32.650500 8.231110
N 7.857940 27.885800 10.180100
N 6.112520 28.610100 10.436100
N 7.507380 29.186100 11.309700
N 6.777590 28.005600 10.070500
N 7.560610 28.943400 9.986580
N 6.967320 29.421000 10.534100
N 7.154950 28.355400 10.917500
N 9.447100 28.868700 9.949740
N 9.101190 27.803000 11.217000
N 8.248620 29.254700 10.498400
N 8.922180 28.672000 10.876000
N 10.926700 27.726200 10.157200
N 11.362600 28.225700 11.198100
N 11.153600 28.635800 10.353500
N 6.628970 30.361900 10.621600
N 7.625360 30.074600 10.054200
N 7.412720 31.077100 10.107000
N 7.987950 30.096400 11.028300
N 8.407230 30.912700 10.740200
N 8.943330 30.102100 10.206700
N 9.135610 31.094000 10.168200
N 10.616100 30.256200 11.070800
N 11.402000 29.546300 10.912400
N 10.315500 31.214600 10.659300
N 10.549400 30.141700 9.838780
N 9.708060 30.471400 10.687000
N 7.790140 32.349100 10.446800
N 6.688330 32.673100 9.781030
N 6.886560 31.785800 10.561700
N 9.518340 31.475800 11.064000
N 8.148580 31.521400 9.743750
N 8.477580 32.945500 10.829100
N 9.596340 32.957500 10.785200
N 8.362930 31.905500 11.113300
N 8.953750 32.220800 10.384900
N 9.245270 33.013500 9.825990
N 10.105900 32.214200 10.465400
N 11.132300 31.845000 10.876400
N 10.768400 32.824200 10.823600
N 8.735610 28.132700 12.950400
N 11.028700 28.562800 12.261200
N 10.119600 29.247100 12.451000
N 10.732400 27.783900 11.815800
N 10.469400 28.617500 13.110300
N 10.799300 29.057700 11.503500
N 6.583140 30.644900 11.539600
N 6.479660 29.739900 11.581800
N 9.269710 29.769300 12.554800
N 8.610000 30.259000 12.964900
N 9.275350 30.897300 12.758900
N 9.880230 31.229600 11.989500
N 10.776500 30.894300 12.602000
N 10.871500 29.637300 13.260400
N 10.292200 30.217300 11.999400
N 11.232900 29.979300 11.902200
N 6.652880 32.141800 11.843000
N 7.629220 32.223500 11.881800
N 8.974730 31.469200 11.853700
N 7.976130 32.629400 12.931300
N 8.407190 31.937700 12.481500
N 9.472110 31.964200 12.503000
N 8.964150 32.473800 13.072100
N 10.384500 31.911200 12.482900
N 9.891390 31.432800 13.251200
N 10.746100 31.302900 11.589300
N 11.049800 32.202000 13.170600
N 10.050600 32.449800 13.133400
N 6.283500 28.736300 13.370300
N 6.514230 29.265200 14.193100
N 9.171290 28.266500 13.827300
N 9.582290 29.322200 13.683900
N 10.993100 28.834200 13.894000
N 10.061000 28.134400 14.096900
N 9.728750 28.944500 14.552400
N 11.184400 29.161600 14.745600
N 11.111900 27.872300 13.723400
N 7.351030 29.700900 14.052600
N 8.049130 30.361300 13.924800
N 8.947530 30.027300 13.940800
N 10.416200 29.859400 14.062700
N 10.785200 31.152500 13.525800
N 7.373720 32.755100 13.975800
N 7.043990 32.209200 14.674500
N 6.886020 31.355000 15.054700
N 8.657010 32.428300 14.195400
N 9.578640 32.141800 13.892600
N 10.835700 32.424600 14.447400
N 10.297600 33.007300 14.982600
N 11.324900 32.971300 13.831600
N 6.220230 28.474600 16.770900
N 7.104330 28.174400 16.877100
N 8.031550 28.068100 16.537700
N 6.270280 30.926500 15.612900
N 6.367550 30.520900 16.461900
N 11.161400 31.791100 16.214400
N 10.835300 32.474300 15.588900
N 6.751500 29.064300 17.357800
N 6.610030 29.766900 17.980400
N 11.795700 1.259140 10.775700
N 13.204700 2.384840 12.844000
N 12.113200 2.074550 12.839300
N 12.813200 1.649990 12.355300
N 12.422200 0.855804 11.775300
N 11.718700 1.428280 12.163300
N 13.344900 0.827849 12.013400
N 11.712100 3.128120 12.704000
N 13.062600 0.815264 13.658800
N 12.481700 1.314600 14.966800
N 12.831100 1.702690 13.387900
N 12.191900 2.203140 14.672500
N 11.513800 0.804728 15.013100
N 14.991400 1.287600 13.597900
N 11.636200 3.151320 14.688700
N 12.659300 3.433100 14.826500
N 12.758400 2.960860 13.709500
N 12.365800 3.761950 14.027500
N 11.723400 2.945160 13.765500
N 13.474100 3.459350 14.387800
N 14.827700 2.843750 14.944400
N 13.937200 2.602450 14.569300
N 11.967400 2.349330 16.685100
N 11.954200 1.194230 15.837900
N 16.316600 1.793370 15.861200
N 16.025300 1.266060 16.608400
N 15.542300 2.403060 15.429300
N 16.847900 1.431300 15.105900
N 12.458600 3.159910 16.595500
N 11.586700 3.486690 16.804600
N 16.815100 2.861360 16.148400
N 16.357600 2.893790 15.293600
N 12.827700 1.211430 17.769000
N 14.617900 1.486830 17.557200
N 14.271200 1.845010 18.358900
N 13.610900 1.116140 18.330800
N 15.223300 1.003470 17.047300
N 16.348600 2.232780 18.161400
N 12.194200 3.945250 17.498500
N 12.729100 4.482930 18.240800
N 11.879200 4.917220 18.488400
N 12.397200 4.875480 17.403700
N 13.969100 21.953600 12.636500
N 16.486400 24.895300 9.634840
N 15.117100 25.193200 8.591610
N 16.111100 24.216400 9.097280
N 15.341500 24.322800 8.563450
N 11.596100 25.965700 8.835040
N 11.621800 27.192100 9.530060
N 15.029900 25.937000 9.162270
N 14.493400 27.081200 8.851290
N 14.126400 26.207600 9.051400
N 14.312500 23.819400 11.406000
N 11.703700 25.688500 10.625300
N 16.051600 25.788800 11.107300
N 15.175100 24.329100 11.413100
N 15.307600 25.315000 11.477900
N 12.267600 26.845200 10.644400
N 12.982100 25.976800 11.203300
N 12.217200 26.459300 9.778590
N 12.988100 27.142000 10.148300
N 14.759500 26.975500 11.027800
N 13.309200 27.192900 11.064000
N 14.013800 27.678100 10.546500
N 16.667000 27.648700 10.234500
N 15.260500 27.675700 10.586800
N 13.692300 22.597400 12.002400
N 14.036400 23.516100 12.239700
N 14.312800 24.777100 11.824100
N 13.472400 25.247700 11.618200
N 12.300300 26.838400 11.744800
N 12.790800 26.868800 12.716400
N 11.857300 27.277000 13.195200
N 12.978100 27.447800 11.951500
N 13.418000 26.376800 11.960000
N 13.797100 26.960800 12.659100
N 14.174200 27.109300 11.795800
N 14.904000 26.527200 12.980900
N 15.044700 27.263700 12.467100
N 15.735500 26.301800 12.461100
N 16.496900 26.253300 11.809700
N 11.636800 26.294100 14.941000
N 11.691800 27.399600 14.357500
N 12.783800 27.592000 15.670600
N 12.355600 26.858900 15.191900
N 12.381500 28.499000 8.835850
N 13.198000 28.742400 9.316330
N 12.559600 29.447200 9.152640
N 12.646800 27.780800 9.440190
N 13.356200 27.750700 8.821970
N 14.257600 28.954400 9.413310
N 13.822300 27.942100 9.590720
N 15.165200 27.700000 8.376320
N 15.109600 28.817000 9.127590
N 15.488600 28.581300 8.222340
N 12.049500 29.489400 8.169910
N 11.647700 30.241600 8.991670
N 12.933100 30.305700 9.230150
N 14.834700 31.089500 9.640080
N 13.785400 29.673600 8.836480
N 14.663200 30.022000 9.449170
N 14.025000 30.667500 9.288490
N 11.528600 31.565900 8.109000
N 12.258600 28.633600 9.927000
N 12.156200 28.768500 10.890800
N 12.844100 29.234600 10.359700
N 11.844500 27.798200 10.233700
N 13.718700 27.981700 11.421200
N 14.798700 28.637500 10.171800
N 14.455100 28.655600 11.059200
N 14.826600 27.887700 11.480900
N 16.459000 28.404800 10.793600
N 15.448900 28.450800 11.095500
N 15.905400 28.576600 10.029300
N 15.436400 29.318500 10.432700
N 12.582100 29.575000 11.401100
N 11.589000 29.759300 9.975300
N 12.827800 31.024900 10.956300
N 12.410300 30.067300 10.426600
N 13.283000 30.786500 10.073900
N 12.029600 30.345300 11.445000
N 13.841100 30.722900 11.285200
N 14.880500 31.161200 10.746400
N 13.381000 29.989300 10.883900
N 13.573600 29.746200 9.797050
N 14.138100 30.510400 10.379000
N 16.280100 30.583200 10.533500
N 15.765900 29.963400 11.078200
N 15.153800 30.223300 10.200700
N 15.483100 31.097100 11.475900
N 11.745000 32.591900 10.939700
N 11.979400 31.789600 10.490800
N 11.828000 31.320300 11.390700
N 12.861400 31.951600 10.974700
N 15.608400 31.476000 10.042000
N 15.770600 31.784900 10.913200
N 11.849500 28.927100 11.783100
N 11.614800 29.293500 12.731900
N 12.671300 27.831700 12.859500
N 13.398100 28.297400 12.448400
N 13.859300 28.957900 12.929100
N 14.423200 28.084900 12.618200
N 14.220400 28.816000 11.994900
N 15.035900 28.822500 13.126800
N 15.846100 28.982200 12.478300
N 16.214200 29.393200 11.626200
N 15.387000 28.136800 12.277900
N 12.833700 30.600300 12.865700
N 12.310100 29.851400 12.353000
N 13.108100 30.272000 11.841000
N 12.541600 31.143100 12.053400
N 11.786200 30.692700 12.622200
N 14.686700 29.581500 12.497900
N 13.614400 30.963200 12.247600
N 15.449200 29.997700 12.105100
N 15.754800 30.821300 12.490800
N 15.196500 30.446800 13.228400
N 12.437200 31.865000 12.665900
N 12.760300 32.946100 12.754800
N 12.255300 32.122000 11.679900
N 11.528000 31.721500 12.494700
N 14.122500 31.642300 12.631300
N 15.089900 31.992400 12.232500
N 13.311100 31.370100 13.185200
N 15.046600 31.406900 13.058300
N 13.413100 32.313100 13.006000
N 14.585300 32.617300 12.683000
N 14.350700 31.445200 11.527700
N 16.798800 33.064300 12.246100
N 13.018800 28.591500 13.531700
N 12.839400 28.777800 14.425100
N 12.151200 29.290300 14.803000
N 11.952200 28.285300 14.499500
N 12.469000 27.847900 13.863700
N 14.327100 28.386100 13.605500
N 13.999700 28.676400 14.445300
N 13.608300 29.333200 13.888100
N 14.815000 29.375600 14.211000
N 16.479900 29.095900 13.481000
N 11.972000 30.060600 13.331300
N 12.526500 30.842500 13.883900
N 11.657700 29.936300 14.222500
N 12.036800 30.230400 15.082400
N 14.021600 29.896500 14.507300
N 14.435300 29.720300 13.405400
N 14.723200 30.662000 14.023300
N 13.335800 30.745600 14.817100
N 14.852000 30.020700 14.908300
N 14.375500 30.951000 14.829600
N 15.607500 29.528500 13.360800
N 12.658200 31.357500 14.694300
N 12.853400 32.091400 13.824300
N 11.931000 32.382000 13.392100
N 11.908800 31.278500 13.361400
N 12.303900 32.763300 14.229900
N 14.845700 32.590900 13.568900
N 13.666000 31.426900 14.250900
N 14.140900 31.859200 13.569300
N 12.847300 28.417500 15.288500
N 11.951400 31.199700 16.829500
N 12.956200 29.805700 15.098000
N 14.501200 31.009000 16.772700
N 14.723900 30.419600 16.035400
N 14.930400 31.273900 15.619000
N 11.677300 32.248600 15.163600
N 11.846800 32.102300 16.808100
N 16.608300 32.010100 16.576900
N 13.192000 31.632800 18.150700
N 12.986100 32.696700 18.216900
N 12.753700 32.178800 17.501200
N 15.185100 31.366700 17.347800
N 16.105400 31.550600 17.273400
N 17.811200 3.387020 16.434000
N 18.092200 1.634630 18.417500
N 17.208400 1.223020 18.266200
N 17.135600 2.251090 17.634800
N 18.630800 0.898900 17.714800
N 19.089700 1.696890 18.488700
N 17.334300 3.112840 17.213000
N 18.320300 2.872360 17.040300
N 17.059500 2.009150 18.770100
N 19.398800 0.807604 18.713300
N 19.578600 26.532900 7.117640
N 17.040000 24.577900 8.898380
N 17.876800 24.597100 9.318760
N 18.642900 25.289900 8.633480
N 18.527400 25.312700 9.540440
N 19.384100 25.122200 7.997860
N 21.476600 25.852600 9.354740
N 17.261100 27.622400 8.683900
N 17.372300 27.259400 9.633670
N 19.232700 26.065700 7.925440
N 22.000300 26.680300 9.637360
N 21.837800 25.631200 10.205200
N 20.411400 27.048900 11.246500
N 20.907400 26.395700 10.688000
N 21.695300 26.861400 10.848500
N 20.932100 27.492200 10.517000
N 18.175900 27.919800 9.030150
N 18.612800 28.709200 9.218140
N 20.102200 28.300300 9.350190
N 19.345700 28.326300 8.743850
N 20.403000 28.193800 10.222200
N 17.111200 30.997800 10.792400
N 19.807500 30.332500 11.268100
N 19.011600 30.933700 11.435600
N 18.614900 31.828700 11.436800
N 17.603900 30.717000 12.164700
N 18.283700 30.186600 11.722200
N 16.937600 31.220900 11.665700
N 20.220200 30.274000 12.154900
N 19.214600 30.296500 12.206200
N 18.551100 32.467100 12.403300
N 17.690900 32.922000 12.586500
N 19.358800 32.404700 11.724400
N 19.380300 31.968100 12.588300
N 17.061000 30.839100 14.019400
N 16.899900 29.875500 13.797300
N 17.072600 32.902100 14.738200
N 17.893200 31.335300 14.730400
N 17.642900 32.205500 14.380900
N 16.955400 31.344000 14.800300
N 17.498400 32.345600 16.538000
N 18.021200 31.553800 16.689000
N 17.904200 32.750300 17.993300
N 17.891900 31.810700 17.620100
N 19.568200 33.057700 17.801000
N 22.461200 26.416700 10.437500
O 3.941880 0.985390 1.034910
O 3.315960 1.716490 1.138190
O 2.941630 2.237610 1.866660
O 4.150520 3.708700 1.407890
O 4.481720 3.237720 2.210150
O 3.268730 1.940900 2.696860
O 3.963690 2.600950 2.729340
O 5.900420 4.719140 30.792700
O 4.377340 0.888720 31.652500
O 5.295250 1.319000 31.450500
O 4.032020 3.629110 32.778100
O 5.437560 4.126970 31.320700
O 4.844010 3.704920 31.888000
O 4.520950 2.969830 32.301800
O 3.521550 31.444500 1.716190
O 3.876720 32.344900 1.891610
O 5.898500 31.944400 0.800357
O 4.673650 32.938300 2.379560
O 5.622030 32.894300 2.197160
O 5.474390 32.051100 1.671770
O 5.706320 32.904000 1.068680
O 4.066790 32.363100 2.838190
O 5.072700 32.782300 31.271600
O 4.081480 32.960800 32.542400
O 5.988620 32.987700 32.449000
O 6.503320 4.876140 30.047800
O 6.959200 1.407180 32.006900
O 6.686150 1.052100 33.012500
O 7.406580 0.737278 32.460600
O 6.160480 1.753540 31.662500
O 3.944980 4.650610 0.818555
O 5.483820 5.664130 1.674470
O 0.889025 2.437930 27.227900
O 1.795710 2.482790 26.876300
O 2.485250 2.912170 27.360200
O 2.230260 2.789900 28.284100
O 2.574680 3.087810 29.121900
O 3.154290 3.407310 29.803100
O 3.139150 3.043820 30.743100
O 2.708520 3.873970 30.548800
O 2.683600 4.810410 30.407600
O 2.444070 5.386590 31.861500
O 2.440290 4.560530 32.380200
O 2.725890 4.630280 31.337300
O 2.989330 4.321320 33.034100
O 3.308810 5.323190 32.928100
O 4.212630 6.389350 0.774594
O 4.242760 6.701290 1.692210
O 4.849150 6.152710 2.168820
O 5.832210 6.429270 2.684480
O 3.490040 6.159700 32.531700
O 6.329740 6.039890 1.935170
O 30.144600 4.246680 26.433100
O 32.441200 2.856810 27.542700
O 30.037700 4.941270 27.077600
O 31.929100 4.722090 27.321300
O 32.003000 3.316580 28.233100
O 31.784600 4.258670 28.179200
O 30.259900 5.098570 28.040000
O 31.169100 5.100280 27.790800
C 5.649800 1.009270 4.101090
C 5.736570 1.921020 3.818380
C 5.669570 2.860980 3.834300
C 6.023780 6.348440 26.822900
C 5.803100 10.766900 27.848100
C 6.053180 10.841000 32.028900
C 5.679360 11.688700 33.055300
C 5.901150 13.080100 31.875300
C 5.747980 12.642300 32.788400
C 5.475010 13.704300 31.353500
C 5.980470 33.059800 3.235880
C 6.723540 2.052260 2.289150
C 7.445990 3.631720 1.711230
C 6.858050 2.856240 1.845940
C 6.817930 4.660540 0.751810
C 7.061860 4.529150 1.652460
C 7.240330 5.614160 0.839111
C 6.344300 5.428770 1.080330
C 6.560980 1.753530 3.183710
C 6.920520 0.899671 3.280050
C 7.129190 3.581160 3.805890
C 6.182900 3.622930 3.704580
C 8.049610 3.567170 3.710100
C 7.406280 5.354010 28.175400
C 7.100050 5.521450 29.070300
C 8.160820 5.525470 28.812300
C 8.087970 5.721750 29.771700
C 7.365210 10.052700 1.322230
C 7.446110 11.265500 1.777090
C 7.534620 11.049900 0.895632
C 8.323630 9.882360 1.325440
C 10.159200 11.213800 0.979532
C 7.425450 11.047200 4.359810
C 7.126070 11.186200 5.309070
C 6.495440 6.915070 27.560400
C 9.375210 7.628930 27.563800
C 8.423420 7.378960 27.603700
C 9.378530 8.552160 27.287300
C 7.536810 10.993800 27.266500
C 6.681030 10.570500 27.456900
C 10.003200 11.458300 27.064600
C 6.825890 7.436780 28.270800
C 6.811500 6.267860 28.498100
C 6.455380 6.994190 28.997600
C 8.308690 9.033850 28.012800
C 8.839480 9.470190 28.709400
C 8.947090 8.323210 28.130500
C 9.552290 8.882250 28.974300
C 10.592800 9.262630 29.071900
C 10.794800 9.665530 28.210300
C 7.215500 10.516800 29.367300
C 8.922680 10.711800 28.544700
C 8.779740 10.287400 29.422800
C 8.113430 10.937100 29.314300
C 10.963600 10.283400 28.898200
C 9.724630 10.206300 28.722100
C 11.354300 11.105200 28.517500
C 10.201300 11.006400 28.773600
C 8.466310 6.598550 29.501900
C 9.384210 7.022560 29.890200
C 8.536420 7.502980 29.699800
C 9.640050 7.824670 30.321300
C 7.816380 8.380430 31.159000
C 7.012170 9.525190 30.229000
C 7.780390 8.600380 30.213000
C 7.629840 9.469900 29.482900
C 9.086610 8.486310 29.735700
C 8.579400 8.161340 30.511000
C 8.644650 8.945540 31.259600
C 9.710800 8.685710 30.696400
C 10.458400 9.274670 29.975800
C 6.785430 10.177000 30.880300
C 7.282950 11.092800 30.596600
C 7.753670 10.229800 30.119800
C 9.321570 11.069000 29.497500
C 8.532370 10.998600 30.193600
C 9.241080 9.750410 31.248100
C 11.317900 10.030400 31.080100
C 10.121000 9.907360 30.583700
C 10.899100 10.915400 30.870400
C 11.242800 10.308800 30.184100
C 7.468940 6.211650 32.493100
C 7.259400 7.765770 31.543600
C 7.180480 7.058870 32.182100
C 6.715950 9.373310 32.216400
C 7.871240 9.092190 31.935200
C 9.465520 8.132760 31.446600
C 10.689000 8.942720 32.397100
C 10.408600 8.259090 31.749800
C 7.661490 10.079900 32.724000
C 6.839130 11.045900 31.465500
C 6.216000 9.853600 31.577400
C 6.758460 10.318300 32.632800
C 6.610390 11.492500 32.734800
C 9.189230 10.668900 32.028200
C 9.417270 10.638800 33.043100
C 8.472700 9.772240 31.963400
C 8.443040 10.796300 32.647300
C 10.044400 10.882700 31.465200
C 10.122400 9.945080 31.654300
C 11.093600 9.706360 31.962000
C 7.284450 11.965700 0.963235
C 7.312350 12.239100 1.952250
C 8.356100 11.880700 1.146270
C 8.051820 12.755300 0.925273
C 11.353500 12.630500 2.312240
C 10.633500 13.345000 2.425000
C 11.436900 13.602900 2.004210
C 7.121220 12.515500 2.813610
C 7.131820 11.873500 4.020100
C 7.509730 11.650700 3.155180
C 6.734450 12.054500 5.323720
C 8.795960 13.562100 25.801800
C 8.191660 11.569300 27.649200
C 8.862480 11.674500 26.877700
C 8.696010 13.227100 26.694100
C 9.438780 12.162600 27.470800
C 8.731620 13.687100 27.663800
C 9.088580 14.497700 26.052800
C 9.533660 13.628500 26.466900
C 8.300530 14.096800 26.471100
C 9.438900 14.233800 27.171700
C 10.264700 14.652400 27.150400
C 10.491900 15.838200 27.325500
C 11.041000 15.148500 26.912100
C 8.952840 13.204200 28.473400
C 8.094100 13.091000 28.836200
C 10.116500 11.570700 27.986800
C 7.385780 14.357900 29.395700
C 7.348420 13.706300 28.727800
C 9.160180 14.258500 28.327100
C 10.028500 14.033600 28.067600
C 10.694500 13.660000 28.772200
C 10.256400 14.464400 28.901700
C 11.043000 15.926600 28.090400
C 11.318800 15.321900 28.819300
C 7.238080 12.022500 30.658300
C 7.446810 13.124900 30.736800
C 8.235910 11.818600 30.955500
C 9.026800 12.588300 30.838100
C 8.973390 11.816400 30.153900
C 9.856460 11.850100 29.512400
C 9.721320 12.465800 30.219600
C 11.409200 12.464700 31.167500
C 6.163090 14.336000 31.116600
C 9.034670 14.551000 31.051000
C 9.674090 13.420200 30.962900
C 9.972120 14.476700 31.023200
C 10.546000 13.467300 30.682800
C 10.512900 15.063200 30.394300
C 7.490780 15.212200 30.440200
C 7.686390 15.262500 29.516600
C 7.086840 15.839800 31.116800
C 6.391690 15.251600 30.754100
C 11.188500 15.348400 29.746100
C 7.766540 13.124700 32.306500
C 7.510850 11.799800 31.522300
C 8.870260 11.580100 32.728100
C 9.633830 12.960700 32.908000
C 8.029830 12.737700 31.363000
C 9.707700 12.002900 33.039000
C 10.537700 12.475500 32.078400
C 10.646900 11.690200 31.518000
C 9.920910 11.535200 32.137200
C 10.494900 13.250800 32.567900
C 7.239240 13.548200 31.571500
C 8.470080 13.525300 32.766600
C 8.839980 13.759200 31.588800
C 11.214900 13.422400 31.365300
C 12.354200 11.405300 1.270730
C 11.525800 11.361100 29.413700
C 12.073200 11.000800 30.072500
C 12.156600 12.140500 2.035230
C 12.721600 12.325900 1.244710
C 11.534300 13.548500 28.308600
C 11.580400 11.526000 30.700300
C 12.014400 11.724500 32.031000
C 12.317900 12.508100 31.576600
C 11.511300 12.777900 32.085100
C 11.923400 12.044800 33.009500
O 1.309520 5.587610 4.283830
O 1.878010 4.113990 5.264080
O 1.237730 3.736930 4.730310
O 1.554150 4.773870 4.661650
O 1.047640 4.076500 6.962710
O 0.945077 3.517540 7.801680
O 1.798940 1.964990 9.644610
O 1.061690 2.468050 9.274190
O 0.866534 3.527670 8.764090
O 0.746297 2.503760 11.031200
O 2.241670 1.747800 10.457800
O 1.679720 2.385280 10.758800
O 32.819900 5.940060 4.042190
O 32.869800 4.308180 5.029450
O 32.247000 4.624380 5.638900
O 31.755300 3.862880 6.280340
O 31.840200 3.065110 7.635330
O 32.445000 3.754200 7.228420
O 31.397700 3.106810 6.781660
O 32.296300 4.587180 6.570210
O 32.627300 2.958890 9.127730
O 31.245900 1.062500 11.453000
O 31.453600 1.257500 10.588900
O 32.213600 2.178340 10.836400
O 32.422700 1.293910 10.471600
O 31.532000 32.545400 11.339000
O 30.966700 31.974500 12.875800
O 31.537300 31.981800 12.129500
O 30.548100 32.704100 13.321200
O 29.871400 32.049600 13.342000
O 2.326080 1.066840 4.969890
O 3.181290 1.161630 5.346150
O 3.516040 1.944390 4.792430
O 3.786670 1.124500 4.329790
O 2.240500 1.428610 7.254320
O 1.654620 1.734100 6.621060
O 3.182820 1.373170 7.185200
O 3.201330 0.831972 6.358270
O 1.413520 31.790300 3.746590
O 1.760440 32.788200 5.325190
O 1.183720 33.021200 4.592780
O 4.248080 32.666500 4.588370
O 3.729430 32.287300 5.302530